# For a description of the Tecplot format see the Tecplot User's guide.
#
Variables=x,y,z,s_u,s_v,s_w,s_p,mono_f_vel_u,mono_f_vel_v,mono_f_vel_w,const,u_nu,v_nu,w_nu,p_nu,x_nu,y_nu,z_nu,const,u_ref,v_ref,w_ref,vol_ref,x_ref,y_ref,z_ref,const,I1,I2,I3,J,p1,p2,p3
Zone f=fepoint, n=246, e=987, et=brick, c=black
38.0652 186.273 153.575 38.065242356520919 186.27336913423539 153.57483533752017 -3.7748811759951253 -1.8481450125239270e-07 1.6905520075397146e-07 -1.0586147273099928e-07 -3.5692888195249561 -3.6498873455526049e-06 -2.6394581825739394e-07 -4.3733298937420617e-05 0.00027320699806352995 1.2828245139349952e-11 -2.7389413480753426e-11 -6.5715401745164647e-12 0.00027425367663116886 37.813509013000001 185.98771463999995 152.49007815000002 1568.1286420541724 0.0000000000000000 0.0000000000000000 0.0000000000000000 0.0000000000000000 0.75282244697977552 0.18891343210118150 0.015801955501568841 0.12570052320226999 3934.3863912443630 0.12570582720059173 0.0000000000000000 
38.007098392853209 201.89525262318750 167.23824867857610 38.007098392853209 201.89525262318745 167.23824867857607 -3.5655077329176006 -3.1721584138212820e-07 1.1649067303697917e-07 -1.1268747490323818e-06 -3.1511330152834347 -3.6466711479665737e-06 -2.7782784700614016e-07 -4.7242160281235623e-05 0.00023257445002026995 2.7535131294891501e-11 -3.6189284642019683e-11 1.3301408484195596e-10 0.00020106132718765012 37.755586870999998 201.59457435000007 166.06645798000000 1115.6658590402926 0.0000000000000000 0.0000000000000000 0.0000000000000000 0.0000000000000000 0.75282514498192676 0.18891477888500760 0.015802123553862422 0.12570260191639157 3934.9546950715949 0.12570649734966247 0.0000000000000000 
65.065192044312496 203.64200008905829 148.39931657651013 65.065192044312482 203.64200008905834 148.39931657651007 -4.6097272890720689 5.6370462253295158e-07 9.8358325956492178e-07 -5.4009205780631513e-07 0.0000000000000000 -5.2474724950060411e-06 -5.0833812636303355e-07 -4.2413659836439118e-05 0.00030931687863532695 -2.8373503803526889e-11 -4.8514043170397529e-11 1.3371485274700663e-11 0.0000000000000000 64.706898088665852 203.32599865957309 147.35284761981995 1170.9507322714735 0.0000000000000000 0.0000000000000000 0.0000000000000000 0.0000000000000000 0.75274387029938328 0.18887401022838632 0.015797011006330072 0.12568804802138780 3933.3970141371251 0.12568615227443480 0.0000000000000000 
58.305467803310364 219.11110134836929 155.04006443260801 58.305467803310407 219.11110134836935 155.04006443260809 -5.3357600782363734 4.5045483065448421e-07 1.1652574586486112e-06 -7.6061540153345556e-07 0.0000000000000000 -4.7694628568517592e-06 -2.9312629537536767e-07 -4.4109580146389771e-05 0.00030822049101777993 3.4776701062445931e-14 -6.8029187429682962e-11 8.8715561932887081e-12 0.0000000000000000 57.976517148132935 218.79386635806736 153.94597399654558 871.12382118538517 0.0000000000000000 0.0000000000000000 0.0000000000000000 0.0000000000000000 0.75268493929361446 0.18884434910150169 0.015793278764518359 0.12568353174921240 3932.5277584544810 0.12567131226590786 0.0000000000000000 
106.68028408495377 203.25643140584970 168.67181990896071 106.68028408495371 203.25643140584970 168.67181990896066 -4.3614505554607828 1.1759766308927735e-08 2.4125052034460493e-07 -3.2068861998204684e-07 0.0000000000000000 -7.4452858273565950e-06 -2.7903741842139063e-07 -4.7610311517842778e-05 0.00037202770278825948 -5.6192426917250804e-11 4.3793968678894840e-11 -1.4691868136984159e-11 0.0000000000000000 106.16678147036436 202.95444406841523 167.49089761680582 1451.6544664497774 0.0000000000000000 0.0000000000000000 0.0000000000000000 0.0000000000000000 0.75280716646778467 0.18890574510354702 0.015800988727800721 0.12569535157815589 3933.7349928132562 0.12570198328745616 0.0000000000000000 
93.298108510780850 213.79602890773307 153.54503536303943 93.298108510780835 213.79602890773310 153.54503536303943 -5.2782857044298135 -3.1572757560750746e-07 6.0321322828133757e-07 -8.0111006415345307e-07 0.0000000000000000 -6.7050590805139976e-06 -2.8840318369582896e-07 -4.3725646103054412e-05 0.00035241656353684808 -2.2115868476434468e-11 -2.1283785974218442e-11 1.5459929011317057e-11 0.0000000000000000 92.835659459041835 213.48390549527133 152.46046799605259 1374.0431229362807 0.0000000000000000 0.0000000000000000 0.0000000000000000 0.0000000000000000 0.75266544409780789 0.18883462919349980 0.015792067312413876 0.12567821897397191 3932.3581945268907 0.12566649083789894 0.0000000000000000 
106.31179664490578 179.06722960826318 168.38074628103649 106.31179664490581 179.06722960826309 168.38074628103644 -4.2410227770812154 7.2118623536235902e-07 -2.2887620797525105e-07 -5.5354100562507896e-08 0.0000000000000000 -7.4249031698503387e-06 -2.5754225604912584e-07 -4.7535561757905402e-05 0.00039610113191256680 -4.6419110508480025e-12 -7.9705055832117333e-12 -2.9672009850433954e-11 0.0000000000000000 105.79969982540383 178.78850535694073 167.20167807608388 2450.7686744678872 0.0000000000000000 0.0000000000000000 0.0000000000000000 0.0000000000000000 0.75264148963869115 0.18882257008557352 0.015790549701578685 0.12567719511883943 3934.8525339344515 0.12566045594692665 0.0000000000000000 
76.119194617657755 193.52910347817254 158.13485184524862 76.119194617657755 193.52910347817257 158.13485184524868 -4.0726553790169824 1.5840272685162861e-07 6.9736291789757227e-07 -4.6237290927106166e-07 0.0000000000000000 -5.8305231120277373e-06 -6.6403789982874504e-07 -4.4200282426236549e-05 0.00033192843260925479 -2.0777177334487516e-11 -1.0261309039844640e-11 3.4132020940388615e-11 0.0000000000000000 75.717375094302042 193.21622810126507 157.03338180528999 1144.4826376458880 0.0000000000000000 0.0000000000000000 0.0000000000000000 0.0000000000000000 0.75288196190467316 0.18894340813534261 0.015805729948160815 0.12570186365298469 3933.1940600018002 0.12572083075276066 0.0000000000000000 
120.95493633350205 178.21293383339480 134.32944727098871 120.95493633350203 178.21293383339480 134.32944727098874 -5.0277367682711249 -1.1104231836575763e-07 -3.9840520637435479e-07 -5.2142754070199915e-07 -5.0551703128738890 -8.2348793581932256e-06 -2.5678310136556526e-07 -3.8790946956523971e-05 0.00039446423595252669 -5.8466744143268271e-12 3.0982997056350719e-12 -2.4822542684345813e-12 0.00041907254813489743 120.38697531999998 177.93503117000000 133.36727978000002 3315.6872353797526 0.0000000000000000 0.0000000000000000 0.0000000000000000 0.0000000000000000 0.75275948399270176 0.18888183267051697 0.015797990792632163 0.12568288269326289 3932.5048219965242 0.12569005401569308 0.0000000000000000 
122.99125855352860 150.91455645033719 167.29218228850601 122.99125855352854 150.91455645033724 167.29218228850598 -4.9189113002578670 7.4497939412058808e-09 1.2797013250015514e-07 2.0043345540749957e-07 0.0000000000000000 -8.3475172551472632e-06 -2.3252502839854467e-07 -4.7256010809071374e-05 0.00038570821427085314 -2.3162760007091147e-12 5.3113495864025330e-12 2.1450791531797067e-11 0.0000000000000000 122.41552888508200 150.66290700972726 166.12004804243418 2788.4559803272532 0.0000000000000000 0.0000000000000000 0.0000000000000000 0.0000000000000000 0.75261880515294532 0.18881119704202690 0.015789124218567482 0.12567389084060759 3933.3970230050190 0.12565477893371085 0.0000000000000000 
103.68696561877589 159.29126895559983 152.06648638734387 103.68696561877590 159.29126895559980 152.06648638734390 -4.3158574177299984 4.9136434950343745e-07 -4.2765011417363618e-07 -3.0768005677115103e-07 0.0000000000000000 -8.6740595193720159e-06 -5.8957427441989048e-08 -4.2218508972161598e-05 0.00040221604606273712 2.2970586017721128e-13 -4.7551063869853921e-12 9.4639565076057706e-12 0.0000000000000000 103.16264437007636 159.03337825173907 151.00577047027593 2614.5647304445974 0.0000000000000000 0.0000000000000000 0.0000000000000000 0.0000000000000000 0.75253622712441470 0.18876976097238576 0.015783926264624833 0.12566490925930116 3935.2850875391241 0.12563411193298177 0.0000000000000000 
135.97034804091666 135.45495989522109 210.57884086669966 135.97034804091666 135.45495989522107 210.57884086669964 -3.7276686402841426 3.0179588037971137e-07 7.8736283463487125e-07 -7.2866537916361086e-07 -3.2708343919811158 -9.0654475563560984e-06 -2.1878719874690589e-07 -5.8372331373790498e-05 0.00026371092678406812 -2.9084402213055003e-11 -8.2161881291193306e-11 4.8955777189244129e-11 0.00023606122941713777 135.34510260000002 135.21817816000001 209.13097830999999 2383.2023779596761 0.0000000000000000 0.0000000000000000 0.0000000000000000 0.0000000000000000 0.75280645494443565 0.18890539483004434 0.015800945649209201 0.12569948846400320 3934.5985312770181 0.12570181353062093 0.0000000000000000 
116.91493918440143 101.35901373760139 191.73731256498780 116.91493918440143 101.35901373760136 191.73731256498783 -4.1490327420957804 -2.8321079718913180e-07 -3.0044538925219466e-07 -7.2443982650106334e-07 -4.5079393034366424 -8.0114094224148502e-06 -1.8848862877451913e-07 -5.3533693438578833e-05 0.00029226919371767309 1.9310974218191294e-11 2.3506651441908331e-11 6.1644882965313914e-11 0.00028359257543596970 116.36239092999996 101.15502254000000 190.40946719000002 2640.5657475930620 0.0000000000000000 0.0000000000000000 0.0000000000000000 0.0000000000000000 0.75283990332658302 0.18892218473093739 0.015803052612240499 0.12569948846400333 3932.7297775597813 0.12571019385400012 0.0000000000000000 
122.31278684031504 108.34492947828886 221.80629121707770 122.31278684031506 108.34492947828883 221.80629121707767 -3.1663191795493524 -3.5955646265818320e-07 -8.5267302530360497e-07 -9.5205996171414346e-08 -2.6679264668509579 -8.3099880163194794e-06 -1.9469649727197112e-07 -6.1255620154632409e-05 0.00019576215360063133 3.5495312428973560e-11 5.5930723212290119e-11 -1.3260132778825852e-11 0.00015354525937536420 121.73964556999999 108.13421982999998 220.28691180000004 1907.3938422647439 0.0000000000000000 0.0000000000000000 0.0000000000000000 0.0000000000000000 0.75279100091802398 0.18889762172536756 0.015799968232924927 0.12569948846400320 3935.8275799224712 0.12569792446814618 0.0000000000000000 
105.30341051272586 122.16314099526164 208.15761290756552 105.30341051272582 122.16314099526157 208.15761290756561 -3.0466424302842303 4.5245143150524579e-08 -3.6848701317967422e-08 -8.8470370669560916e-07 0.0000000000000000 -7.3691249115048763e-06 -2.0697573922812132e-07 -5.7750542871326527e-05 0.00022842271614606518 -6.1114777463621724e-12 -1.6468267988964688e-11 6.7799259952363160e-11 0.0000000000000000 104.79516072874441 121.93914218401807 206.72517314201556 2433.5838456336692 0.0000000000000000 0.0000000000000000 0.0000000000000000 0.0000000000000000 0.75279984397887734 0.18890208541939749 0.015800531476290944 0.12569948846400314 3935.9314464209788 0.12570016468750198 0.0000000000000000 
38.014673546382639 163.39256462168237 155.77615022152315 38.014673546382632 163.39256462168228 155.77615022152310 -2.3134737376746295 2.4412127434077836e-07 5.0425925565415316e-07 3.4726634638906742e-07 -2.5452497077910601 -3.6470901574325865e-06 -2.4361331218969440e-07 -4.4298612184856534e-05 0.00024777709724787167 -2.5180612250955445e-11 -1.4819294107329017e-11 3.7077288573821486e-11 0.00026757516108854077 37.763133124999982 163.12891490999996 154.67737105000003 1609.7391759139125 0.0000000000000000 0.0000000000000000 0.0000000000000000 0.0000000000000000 0.75273238003134346 0.18886815353278263 0.015796264878185789 0.12571625081503665 3937.0759059968750 0.12568320052165666 0.0000000000000000 
38.052447634116632 176.57855631018361 167.40098369164443 38.052447634116625 176.57855631018359 167.40098369164440 -2.5436091319981569 1.5494356246159131e-07 3.2150998289598755e-07 -4.3444342887828059e-07 -3.1744488180943096 -3.6491796129856091e-06 -2.5533073774730575e-07 -4.7283951785492835e-05 0.00018110922960092198 -8.2142098459225476e-12 -4.7979021386864670e-12 6.2129543803650462e-11 0.00021325181947545174 37.800763103000001 176.30222544999998 166.22815640000002 1278.4532315353756 0.0000000000000000 0.0000000000000000 0.0000000000000000 0.0000000000000000 0.75267917039748267 0.18884152921300293 0.015792934469201936 0.12569948846400333 3936.8892671991321 0.12566995495095926 0.0000000000000000 
29.537636133995811 163.90568761908497 176.40649811564987 29.537636133995814 163.90568761908500 176.40649811564984 -1.9854841776888439 2.0159588398815840e-07 2.0223384379867316e-07 -6.2689167039586788e-07 -2.0305888595276267 -3.1781880920342916e-06 -2.4406929163833802e-07 -4.9596631687298671e-05 0.00015132010516582270 -5.9694625269128581e-12 6.5943624947558110e-12 5.4914968847987222e-11 0.00013466419473718820 29.318435967000010 163.64154443000001 175.17630729999999 1176.2421003033126 0.0000000000000000 0.0000000000000000 0.0000000000000000 0.0000000000000000 0.75274044732833201 0.18887227609074300 0.015796791409294075 0.12569948846400320 3937.7625635486688 0.12568529342947346 0.0000000000000000 
45.610171546913747 139.62367392632353 176.81226529262531 45.610171546913755 139.62367392632356 176.81226529262528 -1.7926522619246854 -8.5466873544315867e-07 1.3806274553660319e-07 -2.6173582961321699e-07 0.0000000000000000 -4.0672304236766266e-06 -2.2249164607912597e-07 -4.9700835574373325e-05 0.00018092534166628250 6.7821164616430145e-11 5.9806874974437686e-11 1.0573258508514848e-10 0.0000000000000000 45.329653981089926 139.38288308181924 175.57948981227980 1838.0408446142237 0.0000000000000000 0.0000000000000000 0.0000000000000000 0.0000000000000000 0.75297411009536586 0.18898951599486785 0.015811497595343619 0.12573008211373751 3936.9485354690946 0.12574376756627001 0.0000000000000000 
58.987045332126186 137.32310840919052 224.15969559408094 58.987045332126179 137.32310840919055 224.15969559408089 -1.4004614696298756 1.0894213436671536e-07 3.4169842360663303e-07 -3.5837812891150872e-07 -1.4993518070550385 -4.8071638979740863e-06 -2.2044729544590250e-07 -6.1859991082380272e-05 8.8215708528851809e-05 -1.2819056506629052e-11 -1.1138888108007072e-11 3.2700094039521297e-11 4.6125030254584336e-05 58.655494429999983 137.08453005000001 222.62532541000004 1283.0721019573000 0.0000000000000000 0.0000000000000000 0.0000000000000000 0.0000000000000000 0.75281727545526078 0.18891080650977574 0.015801622276016305 0.12569948846400314 3938.2312844155822 0.12570450042932535 0.0000000000000000 
37.589829449277502 150.51044637242256 220.16628557302676 37.589829449277495 150.51044637242259 220.16628557302676 -1.4234607728386615 2.0489772420466279e-07 1.4951809793826844e-07 -1.7306435987175286e-07 -1.6021491677773869 -3.6235901698655751e-06 -2.3216590908092810e-07 -6.0834455100022833e-05 7.6891835398932058e-05 -2.8748231341852278e-12 -1.8301420118346507e-11 2.5443297753486008e-11 8.5365278070991600e-05 37.339909825999996 150.25918557000000 218.65735269999999 1388.6032526015726 0.0000000000000000 0.0000000000000000 0.0000000000000000 0.0000000000000000 0.75281730903048083 0.18891083585187965 0.015801627528037300 0.12569948846400325 3938.0368953133375 0.12570452321277178 0.0000000000000000 
59.443477988915546 159.03053833135618 204.94691408552012 59.443477988915554 159.03053833135618 204.94691408552009 -1.6283545396863894 3.4759054887228711e-07 -6.7589476368764704e-08 -7.0454526790257076e-08 -1.6308189681563559 -4.8324111875387533e-06 -2.3973710092081504e-07 -5.6926012672986287e-05 0.00012615639951912732 -6.0700507174758108e-11 1.2466711966215926e-11 1.0451528437263602e-11 8.7154853401184897e-05 59.110185776999977 158.77108363999997 203.53492589999999 1913.3477276736232 0.0000000000000000 0.0000000000000000 0.0000000000000000 0.0000000000000000 0.75264957351651607 0.18882666596939976 0.015791068430588865 0.12569948846400331 3938.9788866014992 0.12566253351462109 0.0000000000000000 
45.614443811098354 131.94078049857927 199.25311618551669 45.614443811098369 131.94078049857933 199.25311618551675 -1.5360089852170609 -2.7880002522384981e-07 -7.5938737878555505e-08 2.3033020738391107e-07 0.0000000000000000 -4.0674667355633935e-06 -2.1566440408515852e-07 -5.5463805039568388e-05 0.00010780619269752661 1.6861771963502715e-12 1.8021186163928847e-11 -2.0142191276501420e-11 0.0000000000000000 45.333909946406948 131.70737839773392 197.87739647919071 1878.7089811415260 0.0000000000000000 0.0000000000000000 0.0000000000000000 0.0000000000000000 0.75276297849119567 0.18888358844154615 0.015798211320137760 0.12570218828218180 3938.7852897876592 0.12569094196570652 0.0000000000000000 
73.608693102554156 182.72564673109162 193.51414664180157 73.608693102554128 182.72564673109170 193.51414664180163 -2.1867979626974661 3.0640850402795111e-07 -2.9953923636348378e-07 8.3751111733528771e-08 -1.7013689054397652 -5.6159512814568657e-06 -2.6079320436522835e-07 -5.3989997008840891e-05 0.00021709854082910005 -1.4290895040022847e-10 4.6706989624252677e-11 -2.4212174861600888e-11 0.00017299037524845913 73.221359999000001 182.44340413000006 192.17498315000009 1916.8989385598338 0.0000000000000000 0.0000000000000000 0.0000000000000000 0.0000000000000000 0.75297565725914095 0.18899021024373180 0.015811574358780375 0.12572392818146225 3935.8339390338510 0.12574408743065432 0.0000000000000000 
82.666026252595202 141.83197480765642 210.95076407131512 82.666026252595202 141.83197480765645 210.95076407131509 -2.2901440929253356 2.5294383944897298e-07 2.2745262510471980e-07 -1.3931979419298396e-07 -1.7797858517377452 -6.1169520375603526e-06 -2.2445399988648189e-07 -5.8467843892129334e-05 0.00024035951557693105 -1.7646734239282035e-11 -8.0732633144084513e-11 5.1479827585078861e-11 0.00031818004744934262 82.244139041999972 141.58906020999996 209.50053243000002 2596.9063225776295 0.0000000000000000 0.0000000000000000 0.0000000000000000 0.0000000000000000 0.75282239450015720 0.18891338744506128 0.015801947585165305 0.12570613941276546 3937.2632842403450 0.12570580076942595 0.0000000000000000 
97.137839991679300 151.07545618540027 178.64685485087338 97.137839991679343 151.07545618540016 178.64685485087338 -3.2201732654638460 1.2727557116224933e-06 6.2098674427765827e-08 -3.1091107343156207e-07 0.0000000000000000 -8.7845047713376442e-06 4.5856342652694665e-07 -4.9167679442294946e-05 0.00037565295654887448 -4.9131398380084058e-11 2.6835817179955433e-11 1.8137465168991376e-11 0.0000000000000000 96.634805924592328 150.82018211309926 177.41298922508184 2674.5721001240636 0.0000000000000000 0.0000000000000000 0.0000000000000000 0.0000000000000000 0.75280412496316640 0.18890411619029260 0.015800771585399592 0.12569465292707932 3935.3575287654062 0.12570110042826724 0.0000000000000000 
110.74217622231085 161.07661727990450 196.02126163182629 110.74217622231082 161.07661727990453 196.02126163182615 -4.1302778256207482 9.9402633970451443e-07 1.5217083161853251e-07 -5.2576937021346955e-08 0.0000000000000000 -7.6699668703494872e-06 -2.4155529940173004e-07 -5.4633841892026691e-05 0.00035487480407425827 -5.9128046040424291e-12 -3.3322563937140550e-11 9.8930341316105676e-12 0.0000000000000000 110.21317731831955 160.81519484644704 194.66612826377516 2907.4611518241991 0.0000000000000000 0.0000000000000000 0.0000000000000000 0.0000000000000000 0.75272320568325279 0.18886357376265325 0.015795693407327685 0.12568237960786838 3933.9949682218762 0.12568091678471219 0.0000000000000000 
69.206222343074174 138.01148743979434 192.14592188005705 69.206222343074174 138.01148743979425 192.14592188005705 -1.5290588964676612 3.3763560191017902e-07 2.0730889117526459e-07 8.4562644282228073e-07 0.0000000000000000 -5.3724313378578073e-06 -2.2105900085445104e-07 -5.3638627196705972e-05 0.00021734158464762132 -1.8365808171819743e-10 8.8498389438907848e-11 -7.4866656074287596e-11 0.0000000000000000 68.835684850694804 137.77224705707783 190.81547373645992 2302.4579037184249 0.0000000000000000 0.0000000000000000 0.0000000000000000 0.0000000000000000 0.75318399574408457 0.18909487111593515 0.015824718673775610 0.12574850321137124 3936.0199279138765 0.12579634112337421 0.0000000000000000 
84.301072264550939 175.19321742685690 175.72498046387636 84.301072264550882 175.19321742685682 175.72498046387631 -2.8887648618506936 6.2277288666559055e-07 4.4423156010662106e-07 -3.3009820045510372e-07 0.0000000000000000 -8.0882505894851732e-06 1.9361758705530050e-07 -4.8184880411620714e-05 0.00032159814543733864 -1.2613829124175389e-10 -6.3916123830077078e-11 1.0172894561596307e-11 0.0000000000000000 83.849638243891135 174.91172786385235 174.51222656391082 1667.9065348682720 0.0000000000000000 0.0000000000000000 0.0000000000000000 0.0000000000000000 0.75297170282355685 0.18898827343313787 0.015811337373037953 0.12571545821722580 3934.8286591460355 0.12574312080921587 0.0000000000000000 
101.82801260474034 227.02847092287726 182.68586607187751 101.82801260474035 227.02847092287723 182.68586607187751 -4.5495685564442914 -5.9048530569717509e-07 4.6304139237543752e-07 1.1172480075852397e-07 -4.7977786972571499 -7.1768854277287630e-06 -3.0016190899484485e-07 -5.1209217851233557e-05 0.00033301535694365658 6.1270004893165664e-11 -5.8389228121150784e-11 4.5468020017735663e-11 0.00030083628192119875 101.33302161000000 226.70362169000003 181.41567680000000 527.87335979314730 0.0000000000000000 0.0000000000000000 0.0000000000000000 0.0000000000000000 0.75279895728666091 0.18890163067652568 0.015800473214869517 0.12569948846400320 3932.8438645267606 0.12569993315493669 0.0000000000000000 
109.77311155150028 213.15328273467875 193.39592925810877 109.77311155150028 213.15328273467870 193.39592925810874 -4.0999233509254189 1.7548548612975052e-07 4.8396117576259595e-08 -6.0085216651218505e-08 -3.9075778399420282 -7.6163636583137509e-06 -2.8783203379068034e-07 -5.3959637935141469e-05 0.00035031173305661683 -1.1719823267344497e-10 9.6198111944319032e-11 -3.3321056518312049e-12 0.00037788053963208916 109.24780967000000 212.84177746000000 192.05751878999999 1255.4436111582911 0.0000000000000000 0.0000000000000000 0.0000000000000000 0.0000000000000000 0.75278079518712548 0.18889253214845672 0.015799333717152652 0.12569948846400317 3934.0417778240540 0.12569540144536309 0.0000000000000000 
92.137311516930794 213.32773649312554 179.21355075276799 92.137311516930808 213.32773649312551 179.21355075276793 -4.3569500990734635 5.0330995711673096e-08 8.1682158887684387e-07 -9.0798570070943968e-07 0.0000000000000000 -6.6408503081594175e-06 -2.8798705187238482e-07 -5.0317502677754693e-05 0.00031502710748214103 1.8364877371273623e-11 -1.2263934853552532e-10 7.9116796265958916e-11 0.0000000000000000 91.679290954562077 213.01606344388193 177.96547951144200 663.90724330950775 0.0000000000000000 0.0000000000000000 0.0000000000000000 0.0000000000000000 0.75278638267015918 0.18889525083108613 0.015799664076386208 0.12569802296478463 3933.5568922409302 0.12569671362100110 0.0000000000000000 
64.362197338114129 211.97121615252746 167.83989850859351 64.362197338114129 211.97121615252757 167.83989850859356 -4.2428710517386117 8.0955425477681372e-07 1.1003462894378415e-06 -6.7740115969593004e-07 0.0000000000000000 -5.5628751570247182e-06 -5.0904430305913402e-07 -4.6971946808715890e-05 0.00027418659333271813 -5.8559828803855586e-11 -1.0635141853402945e-10 1.6617873812851311e-11 0.0000000000000000 64.005185165032174 211.65254642520509 166.67194214610197 754.86350931875324 0.0000000000000000 0.0000000000000000 0.0000000000000000 0.0000000000000000 0.75285371147466984 0.18892900607872351 0.015803894879316563 0.12570160551420725 3933.0712155438819 0.12571353537838195 0.0000000000000000 
61.237430137941146 184.74213858920675 163.95158740929534 61.237430137941146 184.74213858920669 163.95158740929531 -3.1120615773094973 -8.3811743658703976e-08 9.1616091836385575e-08 -2.9354738861090418e-07 0.0000000000000000 -4.9316425389800411e-06 -2.6258510898991011e-07 -4.6398122376334339e-05 0.00026544394160771240 -4.5725872705129178e-11 3.1230651817961419e-11 5.0155776718435988e-11 0.0000000000000000 60.897293923099205 184.45795670032331 162.80073215801758 1456.3555990979894 0.0000000000000000 0.0000000000000000 0.0000000000000000 0.0000000000000000 0.75296781974529137 0.18898636874638589 0.015811103927488242 0.12572817457524210 3933.9957965776593 0.12574221342591049 0.0000000000000000 
88.730594611090424 196.33858096439650 139.91957338664457 88.730594611090467 196.33858096439658 139.91957338664454 -4.8924201812652468 1.2384497500778142e-07 7.4991511057644899e-07 -3.2765132471456238e-07 0.0000000000000000 -6.4524098742357872e-06 -2.7289003695640801e-07 -4.0226530917453207e-05 0.00036880307002793973 -2.1124607335377404e-11 1.1966192315087694e-11 1.4041389594917376e-11 0.0000000000000000 88.285570817050015 196.04324661832075 138.92179778727578 2284.4992455537940 0.0000000000000000 0.0000000000000000 0.0000000000000000 0.0000000000000000 0.75273355126897845 0.18886881071959458 0.015796356039323497 0.12568012227356840 3932.8099387412371 0.12568355264436970 0.0000000000000000 
82.248161084760710 174.75473656092430 154.88159897222761 82.248161084760739 174.75473656092433 154.88159897222752 -3.4014789294084875 3.4424830545411148e-07 3.5931014929273137e-07 -1.8414460541768254e-07 0.0000000000000000 -6.6270689820147146e-06 -1.7536493150481522e-07 -4.3231962097740702e-05 0.00038100166503115515 -6.7283949945598678e-13 -4.6179958207935781e-12 4.4422909043717050e-11 0.0000000000000000 81.814121362732124 174.46733636348887 153.79871785113039 1849.3455604645501 0.0000000000000000 0.0000000000000000 0.0000000000000000 0.0000000000000000 0.75283108495665418 0.18891779583436197 0.015802506545577692 0.12571013889231300 3935.2099553870403 0.12570801627292830 0.0000000000000000 
77.024951771108618 237.80568863050550 172.68830828824326 77.024951771108604 237.80568863050547 172.68830828824323 -5.6972126245517156 2.0893117500039509e-07 -5.6125475789720650e-08 -6.0338711120855863e-07 -5.5542210410835073 -5.8049195013620825e-06 -3.0973882925167118e-07 -4.8641774182456292e-05 0.00035687838125808552 -1.7300484808922858e-11 3.9985066329661231e-12 -1.5417789950203537e-11 0.00036384938042644189 76.624585496999998 237.47047479999995 171.48180167999999 450.61312636181810 0.0000000000000000 0.0000000000000000 0.0000000000000000 0.0000000000000000 0.75284578974069494 0.18892524060792207 0.015803448809289133 0.12569948846400320 3930.4124501009360 0.12571177148370147 0.0000000000000000 
66.979755898217064 237.64375101288442 156.97939176599866 66.979755898217050 237.64375101288442 156.97939176599863 -6.3654773691779436 -2.2183851983440103e-08 -3.1079148542567812e-08 -5.9651889920567493e-07 -6.6526302055214037 -5.2492757323103320e-06 -3.0959493338422739e-07 -4.4607613154890036e-05 0.00033814153409071412 -5.3864708634906155e-13 1.1049542256036295e-12 -1.3811760137525396e-11 0.00033944281389246560 66.617712469000011 237.30869291999991 155.87294816000005 715.16986369778181 0.0000000000000000 0.0000000000000000 0.0000000000000000 0.0000000000000000 0.75274415423777863 0.18887402652232008 0.015796997217547373 0.12568559324153766 3929.6416392570513 0.12568610150641524 0.0000000000000000 
87.672838382524972 237.25583156544778 148.05494707174225 87.672838382525001 237.25583156544778 148.05494707174222 -6.2591320470265845 -2.7771499226937021e-07 -2.3709727594705671e-08 -3.2078897431981093e-07 -6.9648090556224096 -6.3939007435842576e-06 -3.0925021288216578e-07 -4.2315752523502947e-05 0.00034129091186085484 -2.7980770898680392e-12 -7.3336389648609032e-12 -1.2784381764404768e-11 0.00033982079433290225 87.231849972999981 236.92114653999997 147.00535059000001 1226.5804134212974 0.0000000000000000 0.0000000000000000 0.0000000000000000 0.0000000000000000 0.75279668053684834 0.18890047558685980 0.015800326717774062 0.12568798565063879 3929.3036257204508 0.12569935018365525 0.0000000000000000 
87.463597136235336 225.10411199582319 163.26490147290542 87.463597136235364 225.10411199582325 163.26490147290542 -5.4908323815854763 -3.3121611530181585e-07 4.6155529831908817e-07 -3.9145585977261247e-07 0.0000000000000000 -6.3823267003049189e-06 -2.9845186830246284e-07 -4.6221776556831795e-05 0.00035100430467875974 8.8528648128594724e-12 -3.1597522379560352e-11 -2.3397767973961187e-11 0.0000000000000000 87.023406990868523 224.78111344523825 162.11842028882040 681.06850806740897 0.0000000000000000 0.0000000000000000 0.0000000000000000 0.0000000000000000 0.75273396142833693 0.18886886961082447 0.015796344979566331 0.12568670399163939 3931.8060950057793 0.12568350983130239 0.0000000000000000 
87.260587006056497 196.76781458763085 187.07735964510408 87.260587006056525 196.76781458763082 187.07735964510405 -3.2885377593315801 4.9496758891484469e-07 -1.4893385533779031e-07 -2.5637597086614669e-07 0.0000000000000000 -6.3710973200459264e-06 -2.7327146800981689e-07 -5.2336984497525212e-05 0.00029837878878868115 -1.4769702003191995e-10 1.6367963601971148e-10 2.4605829418444960e-11 0.0000000000000000 86.821171352877627 196.47206744171046 185.77919734079927 1095.9217422697654 0.0000000000000000 0.0000000000000000 0.0000000000000000 0.0000000000000000 0.75281003301835780 0.18890709969596250 0.015801148182367216 0.12570411167224363 3935.5362413232742 0.12570261747009531 0.0000000000000000 
30.241879685775839 214.76083092575442 131.85038109066463 30.241879685775839 214.76083092575439 131.85038109066463 -4.3002100572198927 4.3908609911802484e-08 3.3514124223358789e-07 4.5776560583083696e-08 -4.6468429331060976 -3.2171428873679129e-06 -2.8926054809752516e-07 -3.8154305189219695e-05 0.00026857222692862288 -6.5876932511034707e-12 -2.2500498585425485e-11 -5.4253505067737267e-12 0.00027238753720384854 30.019992800000004 214.44777965000000 130.90400481000003 1639.8558849024062 0.0000000000000000 0.0000000000000000 0.0000000000000000 0.0000000000000000 0.75278794858478737 0.18889611288017200 0.015799781807188582 0.12569948846400336 3933.5047161586490 0.12569718315890491 0.0000000000000000 