# vtk DataFile Version 3.0
vtk output
ASCII
DATASET POLYDATA
POINTS 6 float
80 160 0
80 160 100
80 220 130
80 100 170
0 0 0
0 0 0
LINES 5 15
2 0 1
2 1 2
2 1 3
2 0 0
2 0 0
CELL_DATA 5
scalars Radius float
LOOKUP_TABLE default
0.0001 0.0001 0.0001 0 0 
scalars Flowrate float
LOOKUP_TABLE default
0 0 0 0 0 
POINT_DATA 6
scalars Pressure float
LOOKUP_TABLE default
0 0 0 0 0 0 
