# vtk DataFile Version 3.0
vtk output
ASCII
DATASET POLYDATA
POINTS 2 float
80 160 0
81.9061 165.038 100.699
LINES 1 3
2 0 1
CELL_DATA 1
scalars Radius float
LOOKUP_TABLE default
1 
scalars Flowrate float
LOOKUP_TABLE default
1.20818e+06 
POINT_DATA 2
scalars Pressure float
LOOKUP_TABLE default
0 -5599.43 
