# vtk DataFile Version 3.0
vtk output
ASCII
DATASET POLYDATA
POINTS 2 float
80 160 0
82.9787 167.872 101.111
LINES 1 3
2 0 1
CELL_DATA 1
scalars Radius float
LOOKUP_TABLE default
1 
scalars Flowrate float
LOOKUP_TABLE default
426469 
POINT_DATA 2
scalars Pressure float
LOOKUP_TABLE default
0 -1976.51 
