# vtk DataFile Version 3.0
vtk output
ASCII
DATASET POLYDATA
POINTS 12409 float
8.4711 145.25 62.87
8.4867 145.16 63.084
8.6071 144.95 64.024
8.985 144.59 65.766
9.0022 144.58 65.856
9.0134 144.57 65.959
9.044 144.55 66.235
9.0732 144.56 66.435
9.2803 144.54 67.378
9.3148 144.53 67.645
9.3873 144.52 68.267
9.4238 144.46 68.74
9.5294 144.35 69.477
9.6084 144.28 69.793
9.8544 144.04 70.807
9.8775 144.03 70.935
10.019 143.93 71.683
10.112 143.85 72.06
10.154 143.8 72.275
10.179 143.77 72.344
10.405 143.61 72.919
10.437 143.58 73.033
10.538 143.51 73.394
10.656 143.42 73.868
10.688 143.37 74.04
10.719 143.33 74.207
10.98 143.09 75.362
11.144 142.94 76.146
11.207 142.94 76.313
11.234 142.92 76.39
11.297 142.89 76.654
11.397 142.86 77.072
11.462 142.82 77.467
11.652 142.77 78.201
11.75 142.72 78.607
11.898 142.64 79.245
11.934 142.62 79.41
11.929 142.6 79.678
11.94 142.59 80.096
11.975 142.56 80.494
11.995 142.52 80.852
12.05 142.45 81.583
12.075 142.39 82.097
12.271 142.19 83.56
12.28 142.16 83.761
12.277 142.15 83.823
12.275 142.14 83.856
12.261 142.1 84.008
12.248 142.06 84.114
12.234 142.02 84.22
12.354 141.9 85.406
12.384 141.84 85.857
12.456 141.67 86.824
12.469 141.64 86.971
12.475 141.61 87.256
12.476 141.6 87.43
12.571 141.54 87.963
12.596 141.48 88.274
12.613 141.44 88.495
12.622 141.43 88.594
12.622 141.43 88.595
12.69 141.26 89.502
12.693 141.26 89.53
12.818 141.19 90.195
12.845 141.01 91.421
12.819 140.85 91.99
12.785 140.73 92.438
12.737 140.63 93.01
12.689 140.66 94.103
12.698 140.76 94.618
12.697 141 95.506
12.695 141.06 95.669
12.649 141.05 95.882
12.609 141.01 96.231
12.586 140.96 96.317
12.526 140.89 96.639
12.465 140.95 97.538
12.297 140.95 99.138
12.274 140.96 99.362
12.261 140.96 99.579
12.191 140.93 100.29
12.138 140.88 100.8
12.133 140.83 101.04
12.099 140.78 101.59
12.095 140.78 101.63
12.059 140.75 101.84
12.046 140.74 101.91
11.966 140.64 102.53
11.93 140.62 102.91
11.902 140.62 103.35
11.86 140.65 104.01
11.853 140.65 104.09
11.778 140.69 104.66
11.777 140.69 104.68
11.777 140.69 104.68
11.768 140.69 104.87
11.783 140.69 105.11
11.835 140.72 105.52
11.856 140.73 105.64
11.968 140.68 106.06
11.982 140.66 106.2
12.14 140.66 106.96
12.186 140.67 107.15
12.272 140.69 107.52
12.463 140.72 108.49
12.484 140.73 108.59
12.519 140.73 108.79
12.568 140.74 109.04
12.719 140.84 109.52
12.766 140.87 109.69
12.972 140.87 109.99
13.373 140.9 110.53
13.605 140.88 110.97
14.258 140.84 112.25
14.632 140.83 112.95
14.71 140.82 113.15
15.081 140.81 114.1
15.086 140.81 114.12
15.518 140.87 115.14
15.696 140.81 115.49
15.742 140.77 115.59
15.914 140.66 115.98
15.961 140.63 116.08
16.043 140.61 116.23
16.096 140.59 116.33
16.096 140.59 116.33
16.195 140.55 116.54
16.659 140.52 117.47
16.892 140.5 117.94
17.196 140.52 118.5
17.465 140.56 119.02
17.65 140.55 119.36
17.667 140.55 119.39
17.697 140.56 119.45
18.008 140.62 120.13
18.534 140.68 121.04
18.548 140.68 121.07
18.843 140.61 121.64
18.99 140.6 121.99
19.301 140.61 122.53
19.317 140.61 122.56
19.768 140.54 123.04
20.812 140.41 124.09
20.987 140.39 124.3
20.991 140.39 124.3
21.068 140.39 124.38
21.172 140.39 124.49
21.256 140.38 124.59
21.336 140.4 124.71
21.382 140.4 124.77
21.736 140.4 125.16
21.823 140.4 125.28
22.216 140.4 125.78
22.502 140.41 126.13
22.546 140.41 126.18
22.627 140.41 126.29
22.679 140.41 126.35
22.679 140.41 126.35
22.729 140.41 126.42
22.729 140.41 126.42
22.975 140.42 126.9
22.981 140.41 126.91
23.06 140.37 127.09
23.081 140.36 127.13
23.081 140.36 127.13
23.16 140.32 127.28
23.324 140.24 127.6
23.343 140.23 127.64
23.7677 141.324 129.341
23.9307 141.274 129.617
23.9307 141.274 129.617
24.0563 141.213 129.882
24.1231 141.182 130.025
24.1677 141.162 130.107
24.2021 141.152 130.168
24.2112 141.152 130.188
24.2112 141.152 130.188
24.2264 141.152 130.219
24.3479 141.132 130.393
24.519 141.122 130.638
24.6871 141.101 130.893
24.8187 141.081 131.128
24.8562 141.081 131.189
24.8693 141.071 131.24
24.9402 141.041 131.516
25.0982 141.01 131.955
25.1225 141 132.016
25.1944 140.96 132.2
25.2804 140.929 132.384
25.3027 140.919 132.445
25.3159 140.919 132.486
25.3715 140.909 132.598
25.49 140.889 132.823
25.5022 140.879 132.853
25.6459 140.858 133.221
25.8393 140.838 133.496
25.8444 140.838 133.517
26.053 140.808 133.864
26.1654 140.798 133.987
26.1664 140.798 133.987
26.3476 140.788 134.262
26.381 140.788 134.293
26.4468 140.788 134.395
26.5947 140.757 134.66
26.6007 140.757 134.671
26.7222 140.747 134.844
26.8893 140.747 135.151
26.9977 140.747 135.385
27.0432 140.757 135.498
27.0503 140.757 135.508
27.1698 140.737 135.824
27.2346 140.737 135.967
27.2498 140.737 135.998
27.3541 140.737 136.202
27.4472 140.737 136.366
27.5616 140.747 136.56
27.5647 140.747 136.57
27.7176 140.747 137.121
27.7398 140.747 137.152
27.8046 140.767 137.622
27.8391 140.777 137.744
27.8603 140.777 137.826
27.8877 140.788 137.958
27.9201 140.798 138.05
28.078 140.828 138.408
28.0942 140.818 138.449
28.1894 140.757 138.785
28.1864 140.686 139.041
28.2299 140.676 139.173
28.3352 140.626 139.429
28.4071 140.605 139.551
28.5124 140.585 139.704
28.5164 140.585 139.725
28.5802 140.555 139.919
28.6339 140.514 140.092
28.8141 140.423 140.634
28.8577 140.403 140.766
28.9812 140.342 141.124
29.2535 140.261 141.889
29.3204 140.251 142.012
29.3882 140.241 142.135
29.5533 140.251 142.41
29.5796 140.251 142.461
29.6899 140.221 142.584
29.8357 140.16 142.778
29.9552 140.119 142.951
30.1314 140.028 143.237
30.2732 139.978 143.421
30.3987 139.917 143.758
30.4838 139.886 143.911
30.4939 139.886 143.932
30.7551 139.846 144.309
30.8969 139.816 144.534
31.0386 139.805 144.728
31.1348 139.795 144.881
31.153 139.795 144.902
31.1622 139.795 144.922
31.1804 139.785 144.953
31.2756 139.765 145.157
31.5601 139.633 145.892
31.6785 139.593 146.208
31.6988 139.583 146.249
31.8446 139.532 146.535
32.0157 139.492 146.831
32.0319 139.492 146.852
32.0744 139.492 146.913
32.1149 139.492 146.964
32.2678 139.492 147.301
32.3296 139.481 147.464
32.3974 139.451 147.689
32.683 139.34 148.22
32.7052 139.33 148.261
32.8865 139.269 148.628
32.9847 139.228 148.843
33.1224 139.188 149.129
33.174 139.178 149.21
33.3006 139.157 149.415
33.4241 139.127 149.649
33.4798 139.117 149.762
33.4849 139.107 149.772
33.5284 139.097 149.874
33.5325 139.097 149.894
33.5578 139.097 149.956
33.6651 139.087 150.242
33.6935 139.076 150.323
33.6985 139.076 150.334
33.7259 139.076 150.405
33.7421 139.076 150.436
33.819 139.076 150.579
33.819 139.076 150.579
33.9365 139.066 150.793
34.0114 139.066 150.916
34.1633 139.097 151.15
34.3243 139.137 151.508
34.5764 139.218 152.182
34.6553 139.238 152.355
34.8811 139.279 152.804
35.2355 139.37 153.458
35.358 139.36 153.662
35.7539 139.4 154.224
35.8633 139.411 154.346
36.0182 139.431 154.53
36.1367 139.441 154.663
36.2339 139.451 154.775
36.3473 139.481 154.908
36.3483 139.481 154.908
36.5032 139.522 155.122
36.5721 139.542 155.245
36.5731 139.542 155.245
36.5974 139.542 155.286
36.5984 139.542 155.286
36.9274 139.593 155.857
36.9598 139.603 155.929
37.0793 139.664 156.286
37.1694 139.684 156.48
37.375 139.795 156.848
37.4459 139.876 156.96
37.539 140.008 157.154
37.8853 140.443 157.726
37.9268 140.494 157.777
38.0007 140.595 157.869
38.1273 140.777 158.042
38.1485 140.818 158.073
38.1485 140.818 158.073
38.1759 140.858 158.114
38.1759 140.858 158.114
38.2792 141.081 158.298
38.3268 141.213 158.4
38.3278 141.223 158.4
38.3581 141.324 158.471
38.3592 141.324 158.471
38.4594 141.648 158.716
38.4817 141.729 158.767
38.4827 141.729 158.767
38.4969 141.78 158.808
38.4969 141.78 158.808
38.5505 141.942 158.92
38.5515 141.942 158.931
38.667 142.246 159.135
38.6983 142.367 159.206
38.7267 142.438 159.257
38.8452 142.63 159.411
38.8786 142.681 159.441
38.8786 142.681 159.451
38.8877 142.691 159.451
38.9424 142.792 159.523
38.9505 142.803 159.533
38.9616 142.823 159.533
39.2228 143.339 159.758
39.2542 143.42 159.788
39.4081 143.856 159.931
39.4436 143.947 159.972
39.4901 144.088 160.023
39.5701 144.331 160.166
39.5894 144.362 160.187
39.7362 144.747 160.432
39.7504 144.777 160.452
39.7574 144.787 160.462
39.7949 144.848 160.503
39.7949 144.848 160.513
39.9994 145.253 160.809
40.1797 145.526 161.014
40.2971 145.668 161.136
40.5907 146.002 161.463
40.7041 146.113 161.565
40.7416 146.154 161.596
40.8135 146.225 161.647
41.1092 146.488 161.871
41.1851 146.549 161.922
41.1881 146.549 161.922
41.2357 146.589 161.984
41.2975 146.64 162.045
41.4332 146.761 162.178
41.5982 146.903 162.351
41.7268 147.065 162.545
41.747 147.085 162.566
41.8949 147.247 162.698
42.066 147.409 162.872
42.1085 147.45 162.913
42.1095 147.45 162.913
42.2979 147.622 163.086
42.3465 147.652 163.127
42.5257 147.804 163.229
42.792 148.007 163.321
43.277 148.382 163.464
43.281 148.382 163.474
43.3387 148.422 163.485
43.8075 148.695 163.668
43.8268 148.716 163.679
43.8754 148.766 163.709
43.8875 148.776 163.719
44.0941 148.938 163.852
44.4338 149.262 164.045
44.6144 149.445 164.137
44.6165 149.445 164.137
44.7778 149.536 164.188
44.8422 149.577 164.218
44.8432 149.577 164.218
45.122 149.728 164.299
45.3119 149.87 164.319
45.3864 149.921 164.329
45.3874 149.921 164.329
45.415 149.941 164.339
45.415 149.941 164.339
45.4374 149.961 164.339
45.4374 149.961 164.339
45.5457 150.043 164.359
45.7385 150.215 164.379
45.7834 150.255 164.39
45.8375 150.296 164.4
45.8784 150.336 164.41
45.9855 150.448 164.43
46.1283 150.61 164.471
46.2447 150.711 164.501
46.3498 150.822 164.521
46.3947 150.863 164.521
46.4365 150.903 164.531
46.4733 150.934 164.531
46.5936 151.065 164.531
46.6559 151.136 164.541
46.6559 151.136 164.541
46.7375 151.217 164.551
46.8242 151.309 164.551
46.9833 151.501 164.55
47.1781 151.714 164.519
47.2281 151.774 164.509
47.4035 151.977 164.488
47.4269 151.997 164.488
47.4892 152.058 164.478
47.5952 152.19 164.468
47.6238 152.22 164.468
47.9439 152.645 164.467
47.9531 152.656 164.457
47.9531 152.656 164.457
48.0327 152.747 164.467
48.2826 153.051 164.487
48.3509 153.142 164.497
48.6262 153.527 164.496
48.7414 153.719 164.537
[...]
CELL_DATA 12408
scalars Radius float
LOOKUP_TABLE default
9.4449 9.4081 9.5032 9.5143 9.5195 9.5365 9.5369 9.5091 9.4949 9.4782 9.4699 9.445 9.4072 9.3353 9.3207 9.2613 9.2256 9.2043 9.1905 9.0676 9.0358 8.9426 8.8319 8.7942 8.7699 8.6125 8.5805 8.5861 8.5825 8.5436 8.4974 8.449 8.3443 8.308 8.2861 8.2863 8.2365 8.1651 8.086 8.0245 7.9303 7.8926 7.8246 7.8176 7.8128 7.8099 7.7952 7.782 7.7683 7.6777 7.672 7.7281 7.7439 7.752 7.7506 7.6779 7.6371 7.6129 7.6021 7.602 7.5532 7.5528 7.5327 7.4797 7.5026 7.5422 7.6001 7.7566 7.8554 8.0535 8.0993 8.159 8.2247 8.2345 8.2377 8.2396 8.4287 8.4765 8.519 8.6744 8.7952 8.8395 8.9031 8.9056 8.9298 8.938 9.0038 9.0448 9.0995 9.2029 9.2131 9.3067 9.3083 9.3083 9.3252 9.3263 9.2923 9.2822 9.1716 9.1392 8.8991 8.8415 8.7418 8.554 8.5396 8.5142 8.49 8.3995 8.3738 8.2104 7.917 7.6944 7.1517 6.9596 6.9061 6.6922 6.6899 6.6175 6.5608 6.5435 6.4949 6.4838 6.4639 6.452 6.452 6.4125 6.3284 6.3149 6.3346 6.3974 6.4633 6.4702 6.4813 6.6129 6.7773 6.7805 6.9048 6.9699 7.0393 7.0437 7.004 7.0884 7.0703 7.0691 7.065 7.0564 7.0475 7.0203 7.0018 6.8885 6.8603 6.7722 6.7298 6.7261 6.7192 6.7144 6.7144 6.7107 6.7107 6.6783 6.6725 6.5999 6.5836 6.5835 6.5169 6.3882 6.3756 6.0948 6.0379 6.0377 5.9932 5.9745 5.964 5.9559 5.9538 5.9538 5.9483 5.9124 5.8672 5.8352 5.8139 5.8094 5.8043 5.7711 5.7377 5.7257 5.6956 5.6637 5.6541 5.6486 5.6287 5.5902 5.5856 5.5349 5.5064 5.5048 5.4714 5.4661 5.466 5.4591 5.4594 5.4581 5.4519 5.4518 5.4512 5.4494 5.4502 5.4528 5.4523 5.4476 5.4521 5.4535 5.4626 5.4803 5.5015 5.5017 5.5391 5.546 5.5648 5.5753 5.5845 5.5988 5.6087 5.6553 5.6555 5.6396 5.6282 5.6186 5.583 5.5685 5.547 5.5448 5.5094 5.4776 5.3817 5.3627 5.3245 5.31 5.3087 5.3125 5.3124 5.3079 5.2761 5.2258 5.1945 5.1519 5.106 5.0474 5.0149 5.0112 4.9339 4.9046 4.874 4.8571 4.8533 4.8517 4.8454 4.8162 4.7574 4.7647 4.764 4.7674 4.7665 4.7667 4.7661 4.7653 4.7475 4.7431 4.7046 4.6475 4.6453 4.6353 4.6371 4.6436 4.6465 4.6497 4.6473 4.6439 4.6432 4.6373 4.6365 4.6318 4.6152 4.6134 4.6131 4.6112 4.6098 4.6011 4.601 4.5911 4.5882 4.5625 4.4914 4.4118 4.403 4.3991 4.4515 4.4547 4.4622 4.4641 4.474 4.4805 4.4858 4.4909 4.4909 4.4936 4.4861 4.486 4.4828 4.4827 4.4656 4.4623 4.4438 4.4502 4.3949 4.3421 4.2807 4.1178 4.1008 4.0554 3.9732 3.9548 3.9545 3.9318 3.9317 3.8291 3.7721 3.7707 3.7321 3.7307 3.6319 3.6122 3.6121 3.6006 3.6002 3.563 3.5625 3.5113 3.4972 3.4833 3.4152 3.3974 3.3973 3.3928 3.3599 3.3532 3.3444 3.1407 3.1171 3.0212 3.0066 2.984 2.9231 2.9128 2.819 2.8128 2.809 2.79 2.7898 2.7073 2.6891 2.6849 2.6826 2.6808 2.682 2.6833 2.7008 2.7099 2.71 2.7097 2.7129 2.7147 2.7321 2.7728 2.7765 2.7765 2.7793 2.7786 2.7786 2.7793 2.7787 2.7625 2.7271 2.7166 2.7169 2.7178 2.7682 2.7683 2.768 2.7681 2.7772 2.8266 2.868 2.8681 2.8701 2.8658 2.8657 2.8319 2.7979 2.7885 2.7884 2.7853 2.7852 2.7824 2.7824 2.7701 2.75 2.7448 2.7377 2.7311 2.7116 2.69 2.6781 2.668 2.6642 2.6601 2.6557 2.6396 2.6332 2.6332 2.6281 2.6224 2.6154 2.5988 2.594 2.5834 2.5827 2.5815 2.5754 2.5736 2.5207 2.5202 2.5202 2.5131 2.5099 2.5022 2.4958 2.4899 2.4979 2.5104 2.5123 2.519 2.5181 2.4863 2.4857 2.4819 2.4619 2.4217 2.4129 2.4105 2.4018 2.3952 2.348 2.3094 2.3081 2.2968 2.2649 2.2394 2.1986 2.1262 2.0588 2.0459 2.0404 2.0402 2.0009 2.0005 1.9893 1.988 1.9591 1.9466 1.9425 1.9352 1.9215 1.9014 1.8755 1.8685 1.8641 1.864 1.8482 1.8101 1.7753 1.7743 1.7578 1.755 1.7397 1.7342 1.7344 1.7309 1.7415 1.7415 1.7138 1.7134 1.7157 1.7154 1.7263 1.7323 1.7354 1.7381 1.764 1.8098 1.8162 1.8245 1.8386 1.847 1.8606 1.9048 1.9269 1.9723 1.9857 1.9858 2.1092 2.1586 2.2715 2.2926 2.3029 2.3172 2.3286 2.311 2.3104 2.2932 2.2662 2.2567 2.2434 2.2278 2.2204 2.2094 2.2061 2.2029 2.2029 2.2048 2.2062 2.2082 2.2079 2.2287 2.2297 2.2323 2.2466 2.2484 2.2519 2.2628 2.2887 2.2855 2.2809 2.2795 2.2795 2.2462 2.246 2.2314 2.2314 2.213 2.2127 2.2196 2.2202 2.2327 2.2605 2.2695 2.2696 2.2716 2.2654 2.2609 2.2603 2.2523 2.2137 2.2111 2.2072 2.1906 2.1876 2.1826 2.1823 2.1629 2.1602 2.1376 2.1364 2.1006 2.1 2.0707 2.0705 2.0515 2.0466 2.041 2.0357 2.0269 2.0205 2.0205 2.0128 1.9973 1.9948 1.9893 1.9803 1.9719 1.9671 1.9635 1.9613 1.9421 1.9407 1.9408 1.9409 1.9393 1.9495 1.9501 1.9501 1.9581 1.9597 1.9949 2.0155 2.0122 2.0087 2.0049 1.995 1.9912 2.0041 2.0074 2.0076 1.9999 1.9893 1.9852 1.9793 1.9736 1.9703 1.969 1.9415 1.9399 1.9442 1.9618 2.004 2.0077 2.0097 2.0146 2.0092 2.0092 1.9889 1.9877 1.9757 1.9608 1.9606 1.9558 1.9554 1.9502 1.9502 1.9435 1.9188 1.9189 1.9146 1.9005 1.9004 1.8992 1.8992 1.8722 1.859 1.859 1.859 1.8637 1.8619 1.8512 1.8289 1.8283 1.8267 1.8259 1.8361 1.8371 1.8309 1.8169 1.7936 1.7878 1.7602 1.7474 1.7367 1.722 1.7164 1.7047 1.6654 1.6608 1.6033 1.5688 1.5683 1.5512 1.551 1.5159 1.5157 1.4983 1.4874 1.3762 1.3758 1.3532 1.3387 1.3235 1.2634 1.2488 1.2078 1.2059 1.1853 1.1789 1.1595 1.13 1.1151 1.0608 1.0447 1.0443 1.0293 0.91021 0.90995 0.86792 0.88404 0.98054 0.98563 1.046 1.0775 1.0787 1.092 1.1048 1.1049 1.1298 1.1304 1.1497 1.1652 1.1757 1.1706 1.1796 1.1812 1.1827 1.2142 1.2134 1.2114 1.2089 1.1598 1.135 1.1339 1.1381 1.1425 1.1429 1.1487 1.1495 1.1503 1.1442 1.1436 1.1405 1.1413 1.1915 1.1936 1.246 1.2552 1.2553 1.2674 1.2738 1.2758 1.2927 1.3346 1.3516 1.3503 1.3335 1.2933 1.2589 1.2449 1.234 1.1979 1.1951 1.1796 1.1836 1.183 1.1723 1.1612 1.1386 1.1307 1.1282 1.1235 1.0897 1.0516 1.0489 1.0498 1.0418 1.0401 1.0385 1.0439 1.1257 1.1458 1.1545 1.1719 1.1736 1.1736 1.1738 1.1616 1.1775 1.1795 1.1814 1.1975 1.1982 1.2284 1.25 1.2778 1.2826 1.2822 1.2804 1.279 1.266 1.2599 1.2517 1.2456 1.231 1.2388 1.2145 1.2083 1.2045 1.2696 1.3217 1.3166 1.3022 1.1957 1.1824 1.1763 1.1622 1.1358 1.1379 1.1273 1.1311 1.1347 1.1416 1.1438 1.1538 7.09 7.0918 7.0912 7.0787 7.0073 6.9863 6.9862 6.9437 6.9311 6.9309 6.9066 6.881 6.8362 6.7842 6.7805 6.7804 6.7243 6.6653 6.633 6.6329 6.6 6.5834 6.5429 6.4562 6.4312 6.3802 6.38 6.3375 6.3269 6.3268 6.2234 6.1201 6.1165 6.1164 6.079 6.0225 6.0094 5.9667 5.9623 5.929 5.8828 5.8542 5.8266 5.7726 5.7724 5.7593 5.7585 5.708 5.6953 5.6701 5.67 5.5861 5.4907 5.2562 5.0648 5.0403 5.0073 4.9906 4.9628 4.9181 4.7667 4.7642 4.6475 4.5995 4.4768 4.4679 4.3892 4.386 4.3468 4.2857 4.2744 4.2333 4.2033 4.2002 4.1491 4.128 4.1101 4.0681 4.0626 4.0407 3.9767 3.9753 3.929 3.7657 3.7196 3.7148 3.7105 3.7104 3.7066 3.7065 3.6301 3.617 3.5841 3.5783 3.5782 3.572 3.566 3.5631 3.5617 3.5406 3.5256 3.5222 3.49 3.4885 3.4626 3.447 3.4206 3.4085 3.2199 3.1623 3.1454 3.1643 3.15 3.1516 3.1517 3.1526 3.1526 3.1186 3.1327 3.2751 3.3247 3.2987 3.2828 3.2824 3.277 3.2292 3.1432 3.1096 3.0461 3.0455 2.8939 2.8165 2.6988 2.6036 2.451 2.4106 2.3965 2.3606 2.3567 2.2387 2.2198 2.2187 2.2018 2.1785 2.1639 2.1476 2.1147 2.0865 2.0444 2.0094 2.0046 1.9788 1.9193 1.8862 1.8673 1.8513 1.772 1.7711 1.716 1.6803 1.6756 1.64 1.64 1.6383 1.6349 1.6449 1.6551 1.6922 1.7492 1.7638 1.8 1.8457 1.8893 1.905 1.9981 2.0245 2.0261 2.0353 2.0333 2.0259 2.0258 2.0245 2.0244 2.0049 1.9896 1.9896 1.9642 1.963 1.961 1.9458 1.8569 1.8566 1.8407 1.8405 1.8214 1.8212 1.8026 1.8024 1.7974 1.806 1.8439 1.8991 1.9787 1.9943 1.9969 2.035 2.0619 2.0803 2.0785 2.058 2.053 2.0446 2.0544 2.0542 2.0522 2.0092 1.9823 1.977 1.9556 1.9431 1.9415 1.9326 1.9307 1.9307 1.9166 1.884 1.8782 1.8767 1.8697 1.8463 1.8288 1.8275 1.8274 1.826 1.826 1.8445 1.834 1.7986 1.761 1.7338 1.6771 1.6737 1.6645 1.6542 1.6438 1.6331 1.6298 1.625 1.6145 1.6141 1.6129 1.598 1.5946 1.5946 1.6036 1.6608 1.689 1.7057 1.7107 1.7161 1.7303 1.7373 1.7875 1.7951 1.7952 1.7959 1.7836 1.7797 1.7505 1.7508 1.7515 1.7516 1.753 1.7626 1.7747 1.7755 1.7646 1.745 1.7315 1.7467 1.748 1.7819 1.8114 1.8093 1.7905 1.7552 1.7422 1.6437 1.5873 1.5818 1.5282 1.5249 1.5247 1.502 1.4827 1.4148 1.4129 1.3954 1.3178 1.2935 1.2881 1.2569 1.2546 1.2346 1.2333 1.2245 1.1673 1.1636 1.1494 1.1494 1.134 1.134 1.12 1.1033 1.1073 1.1104 1.1104 1.1141 1.1141 1.1353 1.1377 1.1616 1.1643 1.1665 1.1627 1.1542 1.1493 1.1462 1.1466 1.1464 1.1362 1.1425 1.1435 1.1431 1.1405 1.122 1.1335 1.1346 1.1575 1.1577 1.1579 1.1547 1.1527 1.152 1.1483 1.143 1.1222 1.1043 1.0959 1.0813 1.0631 1.0373 1.036 1.0185 1.0159 1.0293 1.0421 1.1149 1.1194 1.1165 1.1225 1.1226 1.1029 1.0363 1.0162 0.98284 0.98174 0.90273 0.90177 0.89715 0.86257 0.84643 0.82724 0.80015 0.79967 0.79021 0.82418 0.82631 0.82722 0.81103 0.79533 0.77464 0.77543 0.77392 0.78021 0.79564 0.80433 0.80628 0.8067 0.83095 0.87336 0.87622 0.89301 0.89661 0.89828 0.89961 0.89964 0.90913 0.90925 0.95893 0.97772 0.99914 1.0058 1.0327 1.0558 1.0791 1.1113 1.1167 1.1169 1.0852 1.0363 1.0222 1.022 0.97349 0.97329 0.92641 0.92157 0.87371 0.87146 0.83011 0.81837 0.77052 0.73055 0.70141 0.69205 0.67799 0.66129 0.63368 0.6041 0.59752 0.58216 0.56073 0.55987 0.54073 0.52377 0.51719 0.51774 0.53362 0.53988 4.4996 4.4648 4.4624 4.4488 4.3106 4.295 4.2871 4.2047 4.1569 4.1212 4.0539 4.0243 4.0219 3.9498 3.952 3.9536 3.9555 3.9905 3.9652 3.9605 3.9191 3.8706 3.8308 3.7982 3.7418 3.6828 3.6757 3.6512 3.5932 3.5773 3.4923 3.4232 3.3994 3.373 3.3183 3.3181 3.3134 3.2951 3.2906 3.1752 3.1557 3.1556 3.079 3.0781 3.0206 3.0203 2.9641 2.9635 2.9407 2.8499 2.837 2.7202 2.5817 2.5778 2.338 2.3339 2.1747 2.1259 2.0628 2.0295 1.9814 1.9806 1.9179 1.9174 1.8863 1.8635 1.8082 1.7997 1.7454 1.7421 1.7152 1.6664 1.655 1.6249 1.5762 1.5641 1.5256 1.5008 1.4929 1.4975 1.5134 1.563 1.5711 1.6274 1.6392 1.865 1.9328 1.9526 1.9713 1.9712 1.971 1.9416 1.8425 1.8087 1.7796 1.7283 1.5965 1.5277 1.5264 1.4958 1.4761 1.4493 1.424 1.4184 1.4219 1.4257 1.4279 1.4304 1.4417 1.478 1.5468 1.6366 1.6476 1.7046 1.7092 1.7153 1.7164 1.716 1.7107 1.7202 1.7341 1.7499 1.7763 1.7798 1.7784 1.8034 1.807 1.8088 1.8024 1.7738 1.7721 1.7661 1.6959 1.6858 1.6028 1.5997 1.5324 1.5282 1.5214 1.4961 1.5039 1.5179 1.5228 1.5301 1.5424 1.6275 1.6622 1.7687 1.7793 1.8072 1.7935 1.7497 1.7416 1.6656 1.582 1.5227 1.447 1.4211 1.4235 1.452 1.4518 1.4509 1.4436 1.4238 1.4112 1.4341 1.4383 1.4733 1.4735 1.478 1.4781 1.4521 1.4444 1.4329 1.4083 1.3776 1.3857 1.3923 1.3923 1.3921 1.3921 1.3909 1.3909 1.3887 1.3887 1.3867 1.3753 1.3713 1.3628 1.3585 1.3589 1.3587 1.3544 1.3625 1.3627 1.3621 1.3662 1.3699 1.3473 1.3041 1.2969 1.2215 1.1599 1.1582 1.1641 1.1459 1.1324 1.1311 1.0996 1.0919 1.0889 1.0832 1.0607 1.0317 1.0315 1.0278 1.0179 1.0064 1.0066 0.99327 0.98586 1.0168 1.0378 1.0674 1.0832 1.0979 1.0982 1.099 1.0966 1.0965 1.0861 1.1635 1.2255 1.3054 1.2624 1.2546 1.2364 1.1463 1.1456 1.1393 1.132 1.1209 1.0899 1.0885 1.0223 1.0147 1.0003 0.98881 0.98876 0.98858 0.95683 0.94292 0.94286 0.92554 0.87877 0.87578 0.84279 0.83115 0.78987 0.78731 0.77249 0.73592 0.71495 0.6934 0.69322 0.68631 0.68628 0.68261 0.68865 0.7257 0.73096 0.74065 0.73934 0.74115 0.74383 0.77351 0.7742 0.77445 0.83393 0.84016 0.84021 0.91464 0.93061 0.9314 0.95741 0.96508 0.9706 0.97032 0.96351 0.96268 0.95928 0.94971 0.94365 0.95052 0.95573 0.9569 0.93908 0.93395 0.87842 0.87606 0.86567 0.86212 0.86133 0.85579 0.84364 0.83233 0.79835 0.77545 0.77508 0.76083 0.75551 0.73523 1.7198 1.7165 1.7394 1.7434 1.7604 1.7598 1.7605 1.7743 1.7654 1.7658 1.7647 1.7541 1.7238 1.6867 1.685 1.683 1.6715 1.6445 1.6352 1.6324 1.6287 1.6291 1.6298 1.6288 1.6244 1.624 1.6157 1.6157 1.6034 1.5928 1.585 1.5848 1.5712 1.5491 1.5013 1.4781 1.4638 1.4626 1.4497 1.45 1.4493 1.4437 1.4452 1.4277 1.4208 1.3861 1.386 1.3827 1.3808 1.3809 1.3621 1.3572 1.3473 1.3472 1.3303 1.3297 1.3297 1.3145 1.3124 1.3099 1.3186 1.3298 1.3323 1.3372 1.316 1.2899 1.2452 1.2035 1.2013 1.1908 1.1688 1.1688 1.1686 1.156 1.1496 1.12 1.111 1.1072 1.0867 1.0861 1.0489 1.0442 1.0441 1.042 1.042 1.0376 1.0431 1.0911 1.0944 1.0944 1.1816 1.2018 1.2527 1.3146 1.3495 1.4001 1.4044 1.3961 1.3876 1.2319 1.2313 1.14 1.1389 1.1204 1.0821 1.0557 1.0552 1.0234 1.0067 1.0024 0.95497 0.96378 0.96436 0.96114 0.9421 0.94145 0.94233 0.94387 0.94767 0.94654 0.95043 0.94733 0.95297 0.94287 0.93253 0.92321 0.91055 0.84969 0.84945 0.83969 0.77963 0.72655 0.68497 0.61853 0.5943 0.57822 0.55495 0.48767 0.48941 0.48944 0.49474 0.49614 0.49791 0.53587 0.57395 0.58028 0.58117 0.60006 0.59903 0.6184 0.6224 0.64722 0.64908 0.64912 0.72402 0.76364 0.7714 0.77081 0.77016 0.76448 0.74411 0.73489 0.72657 0.71783 0.66602 0.66333 0.6432 0.64262 0.60879 0.58331 0.55654 0.54196 0.5345 0.52758 0.52484 0.52432 0.52378 0.51233 0.51154 0.51052 0.50556 0.50732 0.50275 0.49991 0.49859 0.50382 0.53813 0.53846 0.54278 0.54928 0.54941 0.53397 0.54736 0.54749 0.57822 0.6293 0.62933 0.64642 0.69869 0.70222 0.68912 0.68625 0.65784 0.63577 0.63158 0.63252 0.60966 0.60929 0.61345 0.61904 0.63245 0.64567 0.66425 0.68287 0.69085 0.69268 0.69327 0.68453 0.6731 0.65792 0.6492 0.6125 0.60158 0.5416 0.5515 0.55102 0.5516 0.59631 0.58822 0.59197 0.59944 0.59225 0.5978 0.59395 0.61274 0.61696 0.61514 0.67405 0.67913 0.71203 0.75101 0.77444 0.77311 0.76966 0.75785 0.75574 0.74303 0.73884 0.73883 0.73584 0.72617 0.69056 0.68954 0.68538 0.67566 0.67247 0.64831 0.6169 0.6105 0.64955 0.64831 0.66474 0.67903 0.67938 1.8231 1.7983 1.7305 1.7256 1.7155 1.6587 1.6259 1.6054 1.5768 1.5703 1.5066 1.5014 1.4916 1.4918 1.5209 1.5436 1.5462 1.6205 1.6803 1.744 1.8101 1.8313 1.8512 1.9316 1.9563 1.9653 1.9751 1.9719 1.9312 1.9189 1.9186 1.8896 1.8485 1.8072 1.8042 1.8032 1.784 1.7808 1.7785 1.7735 1.7428 1.7371 1.7434 1.7999 1.8072 1.8107 1.8117 1.8093 1.8036 1.7741 1.7375 1.6946 1.6641 1.5896 1.5153 1.5086 1.4816 1.4515 1.4417 1.4414 1.4192 1.4187 1.4125 1.4208 1.421 1.4517 1.5237 1.5225 1.5142 1.514 1.4449 1.4337 1.4042 1.3777 1.3456 1.3451 1.3392 1.3252 1.3245 1.298 1.2908 1.3234 1.3256 1.3412 1.3679 1.37 1.3795 1.3797 1.379 1.3695 1.3044 1.259 1.22 1.215 1.1888 1.1602 1.0931 1.08 1.0826 1.165 1.1813 1.2076 1.2094 1.1993 1.1924 1.1904 1.1873 1.0873 0.92158 0.90697 0.77988 0.75393 0.71583 0.69068 0.67372 0.67231 0.66091 0.65526 0.64365 0.65099 0.70691 0.78945 0.82314 0.83183 0.83317 0.8737 0.8653 0.88101 0.92175 0.92886 0.94634 0.95336 0.95776 0.97932 0.97396 0.9515 0.91034 0.89592 0.88164 0.87835 0.87517 0.81635 0.80744 0.79216 0.79193 0.77784 0.75399 0.73881 0.7019 0.67647 0.67162 0.66053 0.66124 0.67471 1.6562 1.6501 1.5889 1.5872 1.4968 1.4898 1.4636 1.4764 1.5101 1.5118 1.5213 1.5228 1.5474 1.6029 1.6342 1.6989 1.7824 1.7772 1.7641 1.715 1.6484 1.6447 1.6236 1.6235 1.5579 1.4875 1.4112 1.3593 1.3252 1.2853 1.2851 1.2142 1.153 1.098 1.0294 0.95283 0.94398 0.8987 0.8912 0.85214 0.83997 0.77354 0.78238 0.78397 0.78335 0.78097 0.77918 0.873 0.91333 1.0522 1.0556 1.0433 1.0013 1.0008 0.99956 0.99953 0.99389 0.9817 0.94626 0.92857 0.91233 0.91047 0.90238 0.89275 0.88652 0.88123 0.86738 1.3241 1.3211 1.31 1.3097 1.294 1.2755 1.2639 1.2588 1.1582 1.1549 1.1389 1.1388 1.0996 1.0804 1.0803 1.0187 1.0072 0.97963 0.97757 0.95992 0.95985 0.86517 0.85395 0.84556 0.8021 0.78947 0.7603 0.75947 0.77469 0.77284 0.76412 0.75805 0.74536 0.74621 0.75515 0.78552 0.82192 0.83831 0.95116 0.95163 0.99186 1.0185 1.0227 1.0496 1.0534 1.0603 1.0671 1.0654 1.0639 1.0578 1.0747 1.089 1.0893 1.1172 1.1481 1.1517 1.1492 1.1566 1.1544 1.1475 1.1383 1.1324 1.1295 1.1205 1.0462 1.0459 0.99908 0.98247 0.95422 0.94899 0.94864 0.89497 0.89475 0.80758 0.80433 0.79103 0.77148 0.76218 0.73803 0.73568 0.72979 1.7809 1.7775 1.7557 1.7555 1.7353 1.7254 1.7464 1.7415 1.734 1.7312 1.7303 1.7199 1.6742 1.6489 1.6342 1.6339 1.6144 1.6143 1.4902 1.4897 1.4369 1.3936 1.3901 1.2586 1.2296 1.1772 1.1551 1.152 1.1454 1.1089 1.085 1.0652 0.95732 0.91603 0.86002 4.3645 4.3331 4.3076 4.2382 4.2173 4.1877 4.169 4.0967 4.084 4.0667 4.055 4.0398 4.0326 4.0481 4.1337 4.2152 4.2363 4.239 4.2368 4.2248 4.2217 4.2208 4.2219 4.199 4.1683 4.1508 4.1501 4.1211 4.0531 4.0813 4.0736 4.0833 4.1127 4.161 4.1708 4.1717 4.1718 4.1652 4.1508 4.1505 4.1345 4.128 4.1267 4.1247 4.121 4.0642 4.0214 3.9563 3.9282 3.9262 3.9321 3.9101 3.8783 3.883 3.8956 3.899 3.8999 3.8975 3.8902 3.8102 3.7653 3.7616 3.7382 3.7167 3.6843 3.626 3.6254 3.565 3.5522 3.5166 3.5159 3.4835 3.4717 3.4479 3.4513 3.4596 3.4851 3.4859 3.4998 3.5084 3.5113 3.5487 3.5958 3.5963 3.5988 3.6001 3.6292 3.6523 3.6452 3.6426 3.6241 3.614 3.5653 3.5534 3.346 3.3323 3.0217 2.9552 2.9101 2.9096 2.8533 2.8079 2.7935 2.7933 2.7569 2.7029 2.6645 2.6528 2.4982 2.4489 2.4027 2.4025 2.3733 2.3387 2.3023 2.2974 2.2961 2.3132 2.3203 2.3215 2.3212 2.3228 2.3539 2.3792 2.4124 2.4821 2.4864 2.4873 2.5594 2.5605 2.5543 2.5525 2.5504 2.5361 2.5012 2.494 2.4926 2.4713 2.471 2.4557 2.4556 2.4317 2.4314 2.4078 2.3781 2.3718 2.3668 2.366 2.366 2.3596 2.3636 2.364 2.3725 2.3766 2.3798 2.3902 2.3939 2.394 2.3819 2.3157 2.3051 2.3017 2.3005 2.2945 2.2799 2.2702 2.2364 2.2357 2.2355 2.2083 2.2255 2.2231 2.2133 2.1933 1.8983 1.8971 1.8303 1.8295 1.7881 1.7879 1.7327 1.7284 1.6656 1.6654 1.6097 1.6092 1.5672 1.5658 1.5508 1.5508 1.5234 1.5233 1.5201 1.5201 1.5117 1.5116 1.5068 1.4962 1.4831 1.4738 1.4627 1.5244 1.6654 1.6683 1.6888 1.7003 1.7031 1.7031 1.7156 1.7136 1.7017 1.6666 1.6474 1.6468 1.6386 1.5991 1.5979 1.597 1.5963 1.5977 1.6061 1.6052 1.6302 1.6303 1.6385 1.6415 1.6419 1.6479 1.648 1.6454 1.6447 1.6371 1.6331 1.6238 1.6422 1.6476 1.653 1.6572 1.6573 1.6569 1.6569 1.6458 1.6457 1.657 1.7039 1.7137 1.7549 1.832 1.8456 1.8127 1.7889 1.7831 1.7579 1.7532 1.7475 1.7396 1.6721 1.6716 1.6689 1.6689 1.6589 1.648 1.6401 1.6279 1.62 1.6192 1.6226 1.6256 1.6443 1.6467 1.6524 1.6532 1.6759 1.6776 1.6773 1.6778 1.6807 1.6792 1.6758 1.6704 1.6621 1.6616 1.6521 1.6217 1.6004 1.5678 1.5513 1.5415 1.5292 1.4882 1.4839 1.4822 1.4811 1.4594 1.4163 1.4078 1.401 1.3798 1.3731 1.3711 1.3627 1.361 1.3742 1.3824 1.3887 1.3913 1.3885 1.3573 1.3645 1.384 1.4038 1.4386 1.4684 1.5169 1.5473 1.5674 1.5732 1.5742 1.5741 1.5702 1.5697 1.5372 1.5196 1.5244 1.527 1.5561 1.5648 1.5862 1.5998 1.6061 1.6173 1.6216 1.636 1.6433 1.6461 1.6799 1.6893 1.6958 1.7454 1.7575 1.7559 1.7523 1.7025 1.6843 1.6712 1.62 1.6109 1.6107 1.6102 1.5856 1.5591 1.5524 1.5203 1.5139 1.5155 1.5417 1.5672 1.5913 1.6005 1.6129 1.6181 1.6705 1.6804 1.6868 1.729 1.7308 1.7333 1.7315 1.7306 1.7198 1.5764 1.5617 1.5481 1.4073 1.4021 1.296 1.2618 1.2612 1.1667 1.1516 1.1435 1.1435 1.0916 1.0883 1.0855 1.0854 1.0728 1.0725 1.0382 1.0379 1.0303 1.0283 1.0154 1.005 0.978 0.93861 0.88887 0.86828 0.84345 0.84304 0.80863 0.76439 0.74121 0.76211 0.76249 0.85933 0.91117 0.96171 0.999 1.0663 1.0742 1.0735 1.0953 1.0706 1.0961 1.0963 1.1423 1.1661 1.1695 1.1736 1.1276 1.0827 0.97933 0.97326 0.95832 0.89525 0.89522 0.88788 0.88365 0.87675 0.86281 0.87354 0.87381 0.87427 0.87451 0.88089 0.88107 0.92139 0.9397 0.93991 0.95826 1.0067 1.0443 1.0685 1.0707 1.7678 1.7907 1.8162 1.8173 1.8412 1.8583 1.862 1.862 1.8571 1.8425 1.8996 1.9979 2.0237 2.0859 2.0949 2.0895 2.0802 2.0165 1.9878 1.915 1.9081 1.908 1.8934 1.8453 1.8421 1.7736 1.7542 1.7064 1.696 1.6959 1.6163 1.6 1.5679 1.5678 1.539 1.4929 1.4534 1.4306 1.4303 1.393 1.381 1.3588 1.3168 1.3143 1.2769 1.2413 1.2163 1.1999 1.1984 1.1833 1.1746 1.1713 1.17 1.1566 1.1434 1.1288 1.1019 1.0458 0.99632 0.98445 0.92479 0.92693 0.93495 0.98933 0.99564 1.0025 1.0353 1.0321 1.0179 1.0068 1.0065 0.97785 0.98622 0.98351 0.98382 0.9746 0.9494 0.94894 0.94894 0.93653 0.88871 0.88821 0.85072 0.80201 0.77811 0.77704 0.76671 0.76659 0.7318 0.73065 0.72447 0.72442 0.72214 0.75175 0.76825 0.77404 0.77319 0.8321 0.85087 0.84737 0.84188 0.85952 0.86376 0.86397 0.88313 0.88268 0.8809 0.88521 0.88397 0.8775 0.85103 0.84649 0.80906 0.80653 0.78569 0.74871 0.7446 0.67811 0.64264 0.60427 0.60412 0.58481 0.58257 0.57717 0.5695 0.5694 0.54691 3.6102 3.6791 3.6948 3.7407 3.7413 3.7941 3.7603 3.7573 3.7319 3.7287 3.6967 3.6821 3.6794 3.5392 3.5378 3.533 3.5113 3.508 3.5199 3.5013 3.4947 3.4752 3.4418 3.4374 3.3626 3.3274 3.2732 3.2493 3.2491 3.2228 3.189 3.1888 3.1753 3.1749 3.1638 3.1416 3.1382 3.1013 3.0618 3.0602 3.0326 3.0335 3.0238 3.0158 2.9951 2.9949 2.9946 2.9934 2.9963 3.044 3.0457 3.027 3.0237 3.0098 3.0141 3.0124 3.0049 3.0014 3.0116 3.011 2.9954 2.9564 2.9457 2.9195 2.9213 2.9606 2.98 3.0529 3.0564 3.0366 3.0493 3.0608 3.0554 3.0513 3.0225 3.0163 3.0163 3.0114 3.0114 3.0052 3.0019