# vtk DataFile Version 3.0
vtk output
ASCII
DATASET POLYDATA
POINTS 12409 float
8.4711 145.25 62.87
8.4867 145.16 63.084
8.6071 144.95 64.024
8.985 144.59 65.766
9.0022 144.58 65.856
9.0134 144.57 65.959
9.044 144.55 66.235
9.0732 144.56 66.435
9.2803 144.54 67.378
9.3148 144.53 67.645
9.3873 144.52 68.267
9.4238 144.46 68.74
9.5294 144.35 69.477
9.6084 144.28 69.793
9.8544 144.04 70.807
9.8775 144.03 70.935
10.019 143.93 71.683
10.112 143.85 72.06
10.154 143.8 72.275
10.179 143.77 72.344
10.405 143.61 72.919
10.437 143.58 73.033
10.538 143.51 73.394
10.656 143.42 73.868
10.688 143.37 74.04
10.719 143.33 74.207
10.98 143.09 75.362
11.144 142.94 76.146
11.207 142.94 76.313
11.234 142.92 76.39
11.297 142.89 76.654
11.397 142.86 77.072
11.462 142.82 77.467
11.652 142.77 78.201
11.75 142.72 78.607
11.898 142.64 79.245
11.934 142.62 79.41
11.929 142.6 79.678
11.94 142.59 80.096
11.975 142.56 80.494
11.995 142.52 80.852
12.05 142.45 81.583
12.075 142.39 82.097
12.271 142.19 83.56
12.28 142.16 83.761
12.277 142.15 83.823
12.275 142.14 83.856
12.261 142.1 84.008
12.248 142.06 84.114
12.234 142.02 84.22
12.354 141.9 85.406
12.384 141.84 85.857
12.456 141.67 86.824
12.469 141.64 86.971
12.475 141.61 87.256
12.476 141.6 87.43
12.571 141.54 87.963
12.596 141.48 88.274
12.613 141.44 88.495
12.622 141.43 88.594
12.622 141.43 88.595
12.69 141.26 89.502
12.693 141.26 89.53
12.818 141.19 90.195
12.845 141.01 91.421
12.819 140.85 91.99
12.785 140.73 92.438
12.737 140.63 93.01
12.689 140.66 94.103
12.698 140.76 94.618
12.697 141 95.506
12.695 141.06 95.669
12.649 141.05 95.882
12.609 141.01 96.231
12.586 140.96 96.317
12.526 140.89 96.639
12.465 140.95 97.538
12.297 140.95 99.138
12.274 140.96 99.362
12.261 140.96 99.579
12.191 140.93 100.29
12.138 140.88 100.8
12.133 140.83 101.04
12.099 140.78 101.59
12.095 140.78 101.63
12.059 140.75 101.84
12.046 140.74 101.91
11.966 140.64 102.53
11.93 140.62 102.91
11.902 140.62 103.35
11.86 140.65 104.01
11.853 140.65 104.09
11.778 140.69 104.66
11.777 140.69 104.68
11.777 140.69 104.68
11.768 140.69 104.87
11.783 140.69 105.11
11.835 140.72 105.52
11.856 140.73 105.64
11.968 140.68 106.06
11.982 140.66 106.2
12.14 140.66 106.96
12.186 140.67 107.15
12.272 140.69 107.52
12.463 140.72 108.49
12.484 140.73 108.59
12.519 140.73 108.79
12.568 140.74 109.04
12.719 140.84 109.52
12.766 140.87 109.69
12.972 140.87 109.99
13.373 140.9 110.53
13.605 140.88 110.97
14.258 140.84 112.25
14.632 140.83 112.95
14.71 140.82 113.15
15.081 140.81 114.1
15.086 140.81 114.12
15.518 140.87 115.14
15.696 140.81 115.49
15.742 140.77 115.59
15.914 140.66 115.98
15.961 140.63 116.08
16.043 140.61 116.23
16.096 140.59 116.33
16.096 140.59 116.33
16.195 140.55 116.54
16.659 140.52 117.47
16.892 140.5 117.94
17.196 140.52 118.5
17.465 140.56 119.02
17.65 140.55 119.36
17.667 140.55 119.39
17.697 140.56 119.45
18.008 140.62 120.13
18.534 140.68 121.04
18.548 140.68 121.07
18.843 140.61 121.64
18.99 140.6 121.99
19.301 140.61 122.53
19.317 140.61 122.56
19.768 140.54 123.04
20.812 140.41 124.09
20.987 140.39 124.3
20.991 140.39 124.3
21.068 140.39 124.38
21.172 140.39 124.49
21.256 140.38 124.59
21.336 140.4 124.71
21.382 140.4 124.77
21.736 140.4 125.16
21.823 140.4 125.28
22.216 140.4 125.78
22.502 140.41 126.13
22.546 140.41 126.18
22.627 140.41 126.29
22.679 140.41 126.35
22.679 140.41 126.35
22.729 140.41 126.42
22.729 140.41 126.42
22.975 140.42 126.9
22.981 140.41 126.91
23.06 140.37 127.09
23.081 140.36 127.13
23.081 140.36 127.13
23.16 140.32 127.28
23.324 140.24 127.6
23.343 140.23 127.64
23.5183 144.053 131.096
23.6856 144.001 131.384
23.6856 144.001 131.384
23.8144 143.938 131.661
23.883 143.907 131.81
23.9287 143.887 131.896
23.964 143.876 131.96
23.9734 143.876 131.981
23.9734 143.876 131.981
23.989 143.876 132.013
24.1136 143.855 132.194
24.2892 143.845 132.45
24.4617 143.824 132.717
24.5967 143.803 132.962
24.6352 143.803 133.026
24.6487 143.793 133.08
24.7214 143.762 133.368
24.8835 143.731 133.826
24.9084 143.72 133.89
24.9822 143.679 134.082
25.0705 143.648 134.274
25.0933 143.637 134.338
25.1068 143.637 134.381
25.164 143.627 134.498
25.2855 143.606 134.733
25.298 143.596 134.765
25.4455 143.575 135.149
25.644 143.554 135.437
25.6491 143.554 135.458
25.8632 143.523 135.821
25.9785 143.513 135.949
25.9795 143.513 135.949
26.1655 143.502 136.237
26.1998 143.502 136.269
26.2673 143.502 136.375
26.419 143.471 136.653
26.4252 143.471 136.663
26.5499 143.461 136.845
26.7213 143.461 137.165
26.8325 143.461 137.41
26.8792 143.471 137.527
26.8865 143.471 137.538
27.0091 143.45 137.869
27.0756 143.45 138.018
27.0912 143.45 138.05
27.1982 143.45 138.263
27.2938 143.45 138.434
27.4112 143.461 138.637
27.4143 143.461 138.647
27.5711 143.461 139.223
27.594 143.461 139.255
27.6605 143.481 139.746
27.6958 143.492 139.874
27.7176 143.492 139.959
27.7457 143.502 140.098
27.7789 143.513 140.194
27.941 143.544 140.567
27.9576 143.533 140.61
28.0553 143.471 140.962
28.0522 143.398 141.228
28.0968 143.388 141.367
28.2049 143.336 141.634
28.2786 143.315 141.762
28.3867 143.294 141.922
28.3909 143.294 141.943
28.4563 143.263 142.146
28.5114 143.222 142.327
28.6963 143.128 142.892
28.741 143.107 143.031
28.8677 143.045 143.404
29.1472 142.962 144.204
29.2158 142.951 144.332
29.2854 142.941 144.46
29.4547 142.951 144.748
29.4817 142.951 144.801
29.595 142.92 144.929
29.7446 142.858 145.132
29.8672 142.816 145.313
30.0479 142.723 145.612
30.1934 142.671 145.804
30.3222 142.609 146.156
30.4095 142.577 146.316
30.4199 142.577 146.337
30.6879 142.536 146.732
30.8333 142.505 146.967
30.9788 142.494 147.169
31.0775 142.484 147.329
31.0962 142.484 147.351
31.1055 142.484 147.372
31.1242 142.474 147.404
31.2219 142.453 147.617
31.5138 142.318 148.385
31.6354 142.276 148.716
31.6562 142.266 148.759
31.8058 142.214 149.057
31.9814 142.172 149.367
31.998 142.172 149.388
32.0416 142.172 149.452
32.0832 142.172 149.505
32.24 142.172 149.857
32.3034 142.162 150.028
32.373 142.131 150.262
32.666 142.016 150.817
32.6889 142.006 150.86
32.8748 141.944 151.244
32.9756 141.902 151.468
33.1169 141.861 151.766
33.1699 141.85 151.852
33.2997 141.829 152.065
33.4265 141.798 152.31
33.4836 141.788 152.428
33.4888 141.778 152.438
33.5335 141.767 152.545
33.5377 141.767 152.566
33.5636 141.767 152.63
33.6738 141.757 152.929
33.7028 141.746 153.014
33.708 141.746 153.025
33.7361 141.746 153.1
33.7527 141.746 153.132
33.8317 141.746 153.281
33.8317 141.746 153.281
33.9522 141.736 153.505
34.0291 141.736 153.633
34.1849 141.767 153.878
34.3501 141.809 154.251
34.6088 141.892 154.955
34.6898 141.913 155.137
34.9215 141.954 155.606
35.2851 142.048 156.289
35.4108 142.037 156.502
35.817 142.079 157.089
35.9292 142.089 157.217
36.0882 142.11 157.409
36.2098 142.12 157.547
36.3095 142.131 157.665
36.4258 142.162 157.803
36.4269 142.162 157.803
36.5858 142.203 158.027
36.6565 142.224 158.155
36.6575 142.224 158.155
36.6825 142.224 158.198
36.6835 142.224 158.198
37.0211 142.276 158.795
37.0544 142.287 158.87
37.177 142.349 159.243
37.2694 142.37 159.446
37.4803 142.484 159.83
37.5531 142.567 159.947
37.6487 142.702 160.15
38.004 143.149 160.747
38.0466 143.201 160.8
38.1224 143.305 160.896
38.2523 143.492 161.078
38.2741 143.533 161.11
38.2741 143.533 161.11
38.3021 143.575 161.152
38.3021 143.575 161.152
38.4081 143.803 161.344
38.4569 143.938 161.451
38.458 143.949 161.451
38.4891 144.053 161.526
38.4902 144.053 161.526
38.593 144.385 161.782
38.6159 144.468 161.835
38.6169 144.468 161.835
38.6315 144.52 161.878
38.6315 144.52 161.878
38.6865 144.686 161.995
38.6876 144.686 162.006
38.806 144.998 162.219
38.8382 145.123 162.294
38.8673 145.196 162.347
38.9889 145.393 162.507
39.0231 145.445 162.539
39.0231 145.445 162.55
39.0325 145.455 162.55
39.0886 145.559 162.624
39.0969 145.57 162.635
39.1083 145.59 162.635
39.3764 146.12 162.87
39.4086 146.203 162.902
39.5665 146.65 163.051
39.6029 146.744 163.094
39.6507 146.889 163.147
39.7327 147.138 163.296
39.7525 147.169 163.318
39.9031 147.564 163.574
39.9177 147.595 163.595
39.9249 147.606 163.606
39.9634 147.668 163.648
39.9634 147.668 163.659
40.1732 148.084 163.968
40.3582 148.364 164.181
40.4787 148.51 164.309
40.78 148.853 164.651
40.8963 148.967 164.757
40.9348 149.008 164.789
41.0085 149.081 164.843
41.3119 149.351 165.077
41.3898 149.414 165.131
41.3929 149.414 165.131
41.4417 149.455 165.195
41.5051 149.507 165.259
41.6443 149.632 165.397
41.8137 149.777 165.579
41.9456 149.943 165.781
41.9664 149.964 165.803
42.1181 150.13 165.941
42.2937 150.297 166.123
42.3373 150.338 166.165
42.3383 150.338 166.165
42.5316 150.515 166.347
42.5814 150.546 166.389
42.7653 150.702 166.496
43.0386 150.91 166.592
43.5362 151.294 166.741
43.5404 151.294 166.752
43.5996 151.336 166.763
44.0806 151.616 166.955
44.1003 151.637 166.965
44.1502 151.689 166.997
44.1627 151.699 167.008
44.3746 151.865 167.147
44.7257 152.197 167.347
44.9125 152.384 167.442
44.9146 152.384 167.442
45.0816 152.477 167.494
45.1482 152.518 167.526
45.1492 152.518 167.526
45.4377 152.673 167.609
45.6341 152.818 167.629
45.7111 152.87 167.639
45.7122 152.87 167.639
45.7407 152.891 167.65
45.7407 152.891 167.65
45.7639 152.911 167.65
45.7639 152.911 167.65
45.8758 152.994 167.67
46.0752 153.17 167.691
46.1217 153.212 167.701
46.1776 153.253 167.711
46.2198 153.295 167.722
46.3306 153.409 167.742
46.4783 153.575 167.784
46.5986 153.678 167.815
46.7072 153.792 167.836
46.7536 153.834 167.836
46.7969 153.875 167.846
46.8349 153.906 167.846
46.9593 154.041 167.845
47.0236 154.114 167.855
47.0236 154.114 167.855
47.108 154.197 167.866
47.1976 154.29 167.865
47.362 154.487 167.864
47.5633 154.705 167.831
47.6149 154.767 167.82
47.7961 154.974 167.798
47.8204 154.995 167.798
47.8847 155.057 167.787
47.9942 155.192 167.775
48.0237 155.223 167.775
48.3545 155.659 167.773
48.364 155.669 167.763
48.364 155.669 167.763
48.4462 155.763 167.773
48.7044 156.074 167.793
48.775 156.167 167.803
49.0594 156.561 167.801
49.1784 156.758 167.844
49.3741 157.111 167.896
[...]
CELL_DATA 12408
scalars Radius float
LOOKUP_TABLE default
9.4449 9.4081 9.5032 9.5143 9.5195 9.5365 9.5369 9.5091 9.4949 9.4782 9.4699 9.445 9.4072 9.3353 9.3207 9.2613 9.2256 9.2043 9.1905 9.0676 9.0358 8.9426 8.8319 8.7942 8.7699 8.6125 8.5805 8.5861 8.5825 8.5436 8.4974 8.449 8.3443 8.308 8.2861 8.2863 8.2365 8.1651 8.086 8.0245 7.9303 7.8926 7.8246 7.8176 7.8128 7.8099 7.7952 7.782 7.7683 7.6777 7.672 7.7281 7.7439 7.752 7.7506 7.6779 7.6371 7.6129 7.6021 7.602 7.5532 7.5528 7.5327 7.4797 7.5026 7.5422 7.6001 7.7566 7.8554 8.0535 8.0993 8.159 8.2247 8.2345 8.2377 8.2396 8.4287 8.4765 8.519 8.6744 8.7952 8.8395 8.9031 8.9056 8.9298 8.938 9.0038 9.0448 9.0995 9.2029 9.2131 9.3067 9.3083 9.3083 9.3252 9.3263 9.2923 9.2822 9.1716 9.1392 8.8991 8.8415 8.7418 8.554 8.5396 8.5142 8.49 8.3995 8.3738 8.2104 7.917 7.6944 7.1517 6.9596 6.9061 6.6922 6.6899 6.6175 6.5608 6.5435 6.4949 6.4838 6.4639 6.452 6.452 6.4125 6.3284 6.3149 6.3346 6.3974 6.4633 6.4702 6.4813 6.6129 6.7773 6.7805 6.9048 6.9699 7.0393 7.0437 7.004 7.0884 7.0703 7.0691 7.065 7.0564 7.0475 7.0203 7.0018 6.8885 6.8603 6.7722 6.7298 6.7261 6.7192 6.7144 6.7144 6.7107 6.7107 6.6783 6.6725 6.5999 6.5836 6.5835 6.5169 6.3882 6.3756 6.0948 6.0379 6.0377 5.9932 5.9745 5.964 5.9559 5.9538 5.9538 5.9483 5.9124 5.8672 5.8352 5.8139 5.8094 5.8043 5.7711 5.7377 5.7257 5.6956 5.6637 5.6541 5.6486 5.6287 5.5902 5.5856 5.5349 5.5064 5.5048 5.4714 5.4661 5.466 5.4591 5.4594 5.4581 5.4519 5.4518 5.4512 5.4494 5.4502 5.4528 5.4523 5.4476 5.4521 5.4535 5.4626 5.4803 5.5015 5.5017 5.5391 5.546 5.5648 5.5753 5.5845 5.5988 5.6087 5.6553 5.6555 5.6396 5.6282 5.6186 5.583 5.5685 5.547 5.5448 5.5094 5.4776 5.3817 5.3627 5.3245 5.31 5.3087 5.3125 5.3124 5.3079 5.2761 5.2258 5.1945 5.1519 5.106 5.0474 5.0149 5.0112 4.9339 4.9046 4.874 4.8571 4.8533 4.8517 4.8454 4.8162 4.7574 4.7647 4.764 4.7674 4.7665 4.7667 4.7661 4.7653 4.7475 4.7431 4.7046 4.6475 4.6453 4.6353 4.6371 4.6436 4.6465 4.6497 4.6473 4.6439 4.6432 4.6373 4.6365 4.6318 4.6152 4.6134 4.6131 4.6112 4.6098 4.6011 4.601 4.5911 4.5882 4.5625 4.4914 4.4118 4.403 4.3991 4.4515 4.4547 4.4622 4.4641 4.474 4.4805 4.4858 4.4909 4.4909 4.4936 4.4861 4.486 4.4828 4.4827 4.4656 4.4623 4.4438 4.4502 4.3949 4.3421 4.2807 4.1178 4.1008 4.0554 3.9732 3.9548 3.9545 3.9318 3.9317 3.8291 3.7721 3.7707 3.7321 3.7307 3.6319 3.6122 3.6121 3.6006 3.6002 3.563 3.5625 3.5113 3.4972 3.4833 3.4152 3.3974 3.3973 3.3928 3.3599 3.3532 3.3444 3.1407 3.1171 3.0212 3.0066 2.984 2.9231 2.9128 2.819 2.8128 2.809 2.79 2.7898 2.7073 2.6891 2.6849 2.6826 2.6808 2.682 2.6833 2.7008 2.7099 2.71 2.7097 2.7129 2.7147 2.7321 2.7728 2.7765 2.7765 2.7793 2.7786 2.7786 2.7793 2.7787 2.7625 2.7271 2.7166 2.7169 2.7178 2.7682 2.7683 2.768 2.7681 2.7772 2.8266 2.868 2.8681 2.8701 2.8658 2.8657 2.8319 2.7979 2.7885 2.7884 2.7853 2.7852 2.7824 2.7824 2.7701 2.75 2.7448 2.7377 2.7311 2.7116 2.69 2.6781 2.668 2.6642 2.6601 2.6557 2.6396 2.6332 2.6332 2.6281 2.6224 2.6154 2.5988 2.594 2.5834 2.5827 2.5815 2.5754 2.5736 2.5207 2.5202 2.5202 2.5131 2.5099 2.5022 2.4958 2.4899 2.4979 2.5104 2.5123 2.519 2.5181 2.4863 2.4857 2.4819 2.4619 2.4217 2.4129 2.4105 2.4018 2.3952 2.348 2.3094 2.3081 2.2968 2.2649 2.2394 2.1986 2.1262 2.0588 2.0459 2.0404 2.0402 2.0009 2.0005 1.9893 1.988 1.9591 1.9466 1.9425 1.9352 1.9215 1.9014 1.8755 1.8685 1.8641 1.864 1.8482 1.8101 1.7753 1.7743 1.7578 1.755 1.7397 1.7342 1.7344 1.7309 1.7415 1.7415 1.7138 1.7134 1.7157 1.7154 1.7263 1.7323 1.7354 1.7381 1.764 1.8098 1.8162 1.8245 1.8386 1.847 1.8606 1.9048 1.9269 1.9723 1.9857 1.9858 2.1092 2.1586 2.2715 2.2926 2.3029 2.3172 2.3286 2.311 2.3104 2.2932 2.2662 2.2567 2.2434 2.2278 2.2204 2.2094 2.2061 2.2029 2.2029 2.2048 2.2062 2.2082 2.2079 2.2287 2.2297 2.2323 2.2466 2.2484 2.2519 2.2628 2.2887 2.2855 2.2809 2.2795 2.2795 2.2462 2.246 2.2314 2.2314 2.213 2.2127 2.2196 2.2202 2.2327 2.2605 2.2695 2.2696 2.2716 2.2654 2.2609 2.2603 2.2523 2.2137 2.2111 2.2072 2.1906 2.1876 2.1826 2.1823 2.1629 2.1602 2.1376 2.1364 2.1006 2.1 2.0707 2.0705 2.0515 2.0466 2.041 2.0357 2.0269 2.0205 2.0205 2.0128 1.9973 1.9948 1.9893 1.9803 1.9719 1.9671 1.9635 1.9613 1.9421 1.9407 1.9408 1.9409 1.9393 1.9495 1.9501 1.9501 1.9581 1.9597 1.9949 2.0155 2.0122 2.0087 2.0049 1.995 1.9912 2.0041 2.0074 2.0076 1.9999 1.9893 1.9852 1.9793 1.9736 1.9703 1.969 1.9415 1.9399 1.9442 1.9618 2.004 2.0077 2.0097 2.0146 2.0092 2.0092 1.9889 1.9877 1.9757 1.9608 1.9606 1.9558 1.9554 1.9502 1.9502 1.9435 1.9188 1.9189 1.9146 1.9005 1.9004 1.8992 1.8992 1.8722 1.859 1.859 1.859 1.8637 1.8619 1.8512 1.8289 1.8283 1.8267 1.8259 1.8361 1.8371 1.8309 1.8169 1.7936 1.7878 1.7602 1.7474 1.7367 1.722 1.7164 1.7047 1.6654 1.6608 1.6033 1.5688 1.5683 1.5512 1.551 1.5159 1.5157 1.4983 1.4874 1.3762 1.3758 1.3532 1.3387 1.3235 1.2634 1.2488 1.2078 1.2059 1.1853 1.1789 1.1595 1.13 1.1151 1.0608 1.0447 1.0443 1.0293 0.91021 0.90995 0.86792 0.88404 0.98054 0.98563 1.046 1.0775 1.0787 1.092 1.1048 1.1049 1.1298 1.1304 1.1497 1.1652 1.1757 1.1706 1.1796 1.1812 1.1827 1.2142 1.2134 1.2114 1.2089 1.1598 1.135 1.1339 1.1381 1.1425 1.1429 1.1487 1.1495 1.1503 1.1442 1.1436 1.1405 1.1413 1.1915 1.1936 1.246 1.2552 1.2553 1.2674 1.2738 1.2758 1.2927 1.3346 1.3516 1.3503 1.3335 1.2933 1.2589 1.2449 1.234 1.1979 1.1951 1.1796 1.1836 1.183 1.1723 1.1612 1.1386 1.1307 1.1282 1.1235 1.0897 1.0516 1.0489 1.0498 1.0418 1.0401 1.0385 1.0439 1.1257 1.1458 1.1545 1.1719 1.1736 1.1736 1.1738 1.1616 1.1775 1.1795 1.1814 1.1975 1.1982 1.2284 1.25 1.2778 1.2826 1.2822 1.2804 1.279 1.266 1.2599 1.2517 1.2456 1.231 1.2388 1.2145 1.2083 1.2045 1.2696 1.3217 1.3166 1.3022 1.1957 1.1824 1.1763 1.1622 1.1358 1.1379 1.1273 1.1311 1.1347 1.1416 1.1438 1.1538 7.09 7.0918 7.0912 7.0787 7.0073 6.9863 6.9862 6.9437 6.9311 6.9309 6.9066 6.881 6.8362 6.7842 6.7805 6.7804 6.7243 6.6653 6.633 6.6329 6.6 6.5834 6.5429 6.4562 6.4312 6.3802 6.38 6.3375 6.3269 6.3268 6.2234 6.1201 6.1165 6.1164 6.079 6.0225 6.0094 5.9667 5.9623 5.929 5.8828 5.8542 5.8266 5.7726 5.7724 5.7593 5.7585 5.708 5.6953 5.6701 5.67 5.5861 5.4907 5.2562 5.0648 5.0403 5.0073 4.9906 4.9628 4.9181 4.7667 4.7642 4.6475 4.5995 4.4768 4.4679 4.3892 4.386 4.3468 4.2857 4.2744 4.2333 4.2033 4.2002 4.1491 4.128 4.1101 4.0681 4.0626 4.0407 3.9767 3.9753 3.929 3.7657 3.7196 3.7148 3.7105 3.7104 3.7066 3.7065 3.6301 3.617 3.5841 3.5783 3.5782 3.572 3.566 3.5631 3.5617 3.5406 3.5256 3.5222 3.49 3.4885 3.4626 3.447 3.4206 3.4085 3.2199 3.1623 3.1454 3.1643 3.15 3.1516 3.1517 3.1526 3.1526 3.1186 3.1327 3.2751 3.3247 3.2987 3.2828 3.2824 3.277 3.2292 3.1432 3.1096 3.0461 3.0455 2.8939 2.8165 2.6988 2.6036 2.451 2.4106 2.3965 2.3606 2.3567 2.2387 2.2198 2.2187 2.2018 2.1785 2.1639 2.1476 2.1147 2.0865 2.0444 2.0094 2.0046 1.9788 1.9193 1.8862 1.8673 1.8513 1.772 1.7711 1.716 1.6803 1.6756 1.64 1.64 1.6383 1.6349 1.6449 1.6551 1.6922 1.7492 1.7638 1.8 1.8457 1.8893 1.905 1.9981 2.0245 2.0261 2.0353 2.0333 2.0259 2.0258 2.0245 2.0244 2.0049 1.9896 1.9896 1.9642 1.963 1.961 1.9458 1.8569 1.8566 1.8407 1.8405 1.8214 1.8212 1.8026 1.8024 1.7974 1.806 1.8439 1.8991 1.9787 1.9943 1.9969 2.035 2.0619 2.0803 2.0785 2.058 2.053 2.0446 2.0544 2.0542 2.0522 2.0092 1.9823 1.977 1.9556 1.9431 1.9415 1.9326 1.9307 1.9307 1.9166 1.884 1.8782 1.8767 1.8697 1.8463 1.8288 1.8275 1.8274 1.826 1.826 1.8445 1.834 1.7986 1.761 1.7338 1.6771 1.6737 1.6645 1.6542 1.6438 1.6331 1.6298 1.625 1.6145 1.6141 1.6129 1.598 1.5946 1.5946 1.6036 1.6608 1.689 1.7057 1.7107 1.7161 1.7303 1.7373 1.7875 1.7951 1.7952 1.7959 1.7836 1.7797 1.7505 1.7508 1.7515 1.7516 1.753 1.7626 1.7747 1.7755 1.7646 1.745 1.7315 1.7467 1.748 1.7819 1.8114 1.8093 1.7905 1.7552 1.7422 1.6437 1.5873 1.5818 1.5282 1.5249 1.5247 1.502 1.4827 1.4148 1.4129 1.3954 1.3178 1.2935 1.2881 1.2569 1.2546 1.2346 1.2333 1.2245 1.1673 1.1636 1.1494 1.1494 1.134 1.134 1.12 1.1033 1.1073 1.1104 1.1104 1.1141 1.1141 1.1353 1.1377 1.1616 1.1643 1.1665 1.1627 1.1542 1.1493 1.1462 1.1466 1.1464 1.1362 1.1425 1.1435 1.1431 1.1405 1.122 1.1335 1.1346 1.1575 1.1577 1.1579 1.1547 1.1527 1.152 1.1483 1.143 1.1222 1.1043 1.0959 1.0813 1.0631 1.0373 1.036 1.0185 1.0159 1.0293 1.0421 1.1149 1.1194 1.1165 1.1225 1.1226 1.1029 1.0363 1.0162 0.98284 0.98174 0.90273 0.90177 0.89715 0.86257 0.84643 0.82724 0.80015 0.79967 0.79021 0.82418 0.82631 0.82722 0.81103 0.79533 0.77464 0.77543 0.77392 0.78021 0.79564 0.80433 0.80628 0.8067 0.83095 0.87336 0.87622 0.89301 0.89661 0.89828 0.89961 0.89964 0.90913 0.90925 0.95893 0.97772 0.99914 1.0058 1.0327 1.0558 1.0791 1.1113 1.1167 1.1169 1.0852 1.0363 1.0222 1.022 0.97349 0.97329 0.92641 0.92157 0.87371 0.87146 0.83011 0.81837 0.77052 0.73055 0.70141 0.69205 0.67799 0.66129 0.63368 0.6041 0.59752 0.58216 0.56073 0.55987 0.54073 0.52377 0.51719 0.51774 0.53362 0.53988 4.4996 4.4648 4.4624 4.4488 4.3106 4.295 4.2871 4.2047 4.1569 4.1212 4.0539 4.0243 4.0219 3.9498 3.952 3.9536 3.9555 3.9905 3.9652 3.9605 3.9191 3.8706 3.8308 3.7982 3.7418 3.6828 3.6757 3.6512 3.5932 3.5773 3.4923 3.4232 3.3994 3.373 3.3183 3.3181 3.3134 3.2951 3.2906 3.1752 3.1557 3.1556 3.079 3.0781 3.0206 3.0203 2.9641 2.9635 2.9407 2.8499 2.837 2.7202 2.5817 2.5778 2.338 2.3339 2.1747 2.1259 2.0628 2.0295 1.9814 1.9806 1.9179 1.9174 1.8863 1.8635 1.8082 1.7997 1.7454 1.7421 1.7152 1.6664 1.655 1.6249 1.5762 1.5641 1.5256 1.5008 1.4929 1.4975 1.5134 1.563 1.5711 1.6274 1.6392 1.865 1.9328 1.9526 1.9713 1.9712 1.971 1.9416 1.8425 1.8087 1.7796 1.7283 1.5965 1.5277 1.5264 1.4958 1.4761 1.4493 1.424 1.4184 1.4219 1.4257 1.4279 1.4304 1.4417 1.478 1.5468 1.6366 1.6476 1.7046 1.7092 1.7153 1.7164 1.716 1.7107 1.7202 1.7341 1.7499 1.7763 1.7798 1.7784 1.8034 1.807 1.8088 1.8024 1.7738 1.7721 1.7661 1.6959 1.6858 1.6028 1.5997 1.5324 1.5282 1.5214 1.4961 1.5039 1.5179 1.5228 1.5301 1.5424 1.6275 1.6622 1.7687 1.7793 1.8072 1.7935 1.7497 1.7416 1.6656 1.582 1.5227 1.447 1.4211 1.4235 1.452 1.4518 1.4509 1.4436 1.4238 1.4112 1.4341 1.4383 1.4733 1.4735 1.478 1.4781 1.4521 1.4444 1.4329 1.4083 1.3776 1.3857 1.3923 1.3923 1.3921 1.3921 1.3909 1.3909 1.3887 1.3887 1.3867 1.3753 1.3713 1.3628 1.3585 1.3589 1.3587 1.3544 1.3625 1.3627 1.3621 1.3662 1.3699 1.3473 1.3041 1.2969 1.2215 1.1599 1.1582 1.1641 1.1459 1.1324 1.1311 1.0996 1.0919 1.0889 1.0832 1.0607 1.0317 1.0315 1.0278 1.0179 1.0064 1.0066 0.99327 0.98586 1.0168 1.0378 1.0674 1.0832 1.0979 1.0982 1.099 1.0966 1.0965 1.0861 1.1635 1.2255 1.3054 1.2624 1.2546 1.2364 1.1463 1.1456 1.1393 1.132 1.1209 1.0899 1.0885 1.0223 1.0147 1.0003 0.98881 0.98876 0.98858 0.95683 0.94292 0.94286 0.92554 0.87877 0.87578 0.84279 0.83115 0.78987 0.78731 0.77249 0.73592 0.71495 0.6934 0.69322 0.68631 0.68628 0.68261 0.68865 0.7257 0.73096 0.74065 0.73934 0.74115 0.74383 0.77351 0.7742 0.77445 0.83393 0.84016 0.84021 0.91464 0.93061 0.9314 0.95741 0.96508 0.9706 0.97032 0.96351 0.96268 0.95928 0.94971 0.94365 0.95052 0.95573 0.9569 0.93908 0.93395 0.87842 0.87606 0.86567 0.86212 0.86133 0.85579 0.84364 0.83233 0.79835 0.77545 0.77508 0.76083 0.75551 0.73523 1.7198 1.7165 1.7394 1.7434 1.7604 1.7598 1.7605 1.7743 1.7654 1.7658 1.7647 1.7541 1.7238 1.6867 1.685 1.683 1.6715 1.6445 1.6352 1.6324 1.6287 1.6291 1.6298 1.6288 1.6244 1.624 1.6157 1.6157 1.6034 1.5928 1.585 1.5848 1.5712 1.5491 1.5013 1.4781 1.4638 1.4626 1.4497 1.45 1.4493 1.4437 1.4452 1.4277 1.4208 1.3861 1.386 1.3827 1.3808 1.3809 1.3621 1.3572 1.3473 1.3472 1.3303 1.3297 1.3297 1.3145 1.3124 1.3099 1.3186 1.3298 1.3323 1.3372 1.316 1.2899 1.2452 1.2035 1.2013 1.1908 1.1688 1.1688 1.1686 1.156 1.1496 1.12 1.111 1.1072 1.0867 1.0861 1.0489 1.0442 1.0441 1.042 1.042 1.0376 1.0431 1.0911 1.0944 1.0944 1.1816 1.2018 1.2527 1.3146 1.3495 1.4001 1.4044 1.3961 1.3876 1.2319 1.2313 1.14 1.1389 1.1204 1.0821 1.0557 1.0552 1.0234 1.0067 1.0024 0.95497 0.96378 0.96436 0.96114 0.9421 0.94145 0.94233 0.94387 0.94767 0.94654 0.95043 0.94733 0.95297 0.94287 0.93253 0.92321 0.91055 0.84969 0.84945 0.83969 0.77963 0.72655 0.68497 0.61853 0.5943 0.57822 0.55495 0.48767 0.48941 0.48944 0.49474 0.49614 0.49791 0.53587 0.57395 0.58028 0.58117 0.60006 0.59903 0.6184 0.6224 0.64722 0.64908 0.64912 0.72402 0.76364 0.7714 0.77081 0.77016 0.76448 0.74411 0.73489 0.72657 0.71783 0.66602 0.66333 0.6432 0.64262 0.60879 0.58331 0.55654 0.54196 0.5345 0.52758 0.52484 0.52432 0.52378 0.51233 0.51154 0.51052 0.50556 0.50732 0.50275 0.49991 0.49859 0.50382 0.53813 0.53846 0.54278 0.54928 0.54941 0.53397 0.54736 0.54749 0.57822 0.6293 0.62933 0.64642 0.69869 0.70222 0.68912 0.68625 0.65784 0.63577 0.63158 0.63252 0.60966 0.60929 0.61345 0.61904 0.63245 0.64567 0.66425 0.68287 0.69085 0.69268 0.69327 0.68453 0.6731 0.65792 0.6492 0.6125 0.60158 0.5416 0.5515 0.55102 0.5516 0.59631 0.58822 0.59197 0.59944 0.59225 0.5978 0.59395 0.61274 0.61696 0.61514 0.67405 0.67913 0.71203 0.75101 0.77444 0.77311 0.76966 0.75785 0.75574 0.74303 0.73884 0.73883 0.73584 0.72617 0.69056 0.68954 0.68538 0.67566 0.67247 0.64831 0.6169 0.6105 0.64955 0.64831 0.66474 0.67903 0.67938 1.8231 1.7983 1.7305 1.7256 1.7155 1.6587 1.6259 1.6054 1.5768 1.5703 1.5066 1.5014 1.4916 1.4918 1.5209 1.5436 1.5462 1.6205 1.6803 1.744 1.8101 1.8313 1.8512 1.9316 1.9563 1.9653 1.9751 1.9719 1.9312 1.9189 1.9186 1.8896 1.8485 1.8072 1.8042 1.8032 1.784 1.7808 1.7785 1.7735 1.7428 1.7371 1.7434 1.7999 1.8072 1.8107 1.8117 1.8093 1.8036 1.7741 1.7375 1.6946 1.6641 1.5896 1.5153 1.5086 1.4816 1.4515 1.4417 1.4414 1.4192 1.4187 1.4125 1.4208 1.421 1.4517 1.5237 1.5225 1.5142 1.514 1.4449 1.4337 1.4042 1.3777 1.3456 1.3451 1.3392 1.3252 1.3245 1.298 1.2908 1.3234 1.3256 1.3412 1.3679 1.37 1.3795 1.3797 1.379 1.3695 1.3044 1.259 1.22 1.215 1.1888 1.1602 1.0931 1.08 1.0826 1.165 1.1813 1.2076 1.2094 1.1993 1.1924 1.1904 1.1873 1.0873 0.92158 0.90697 0.77988 0.75393 0.71583 0.69068 0.67372 0.67231 0.66091 0.65526 0.64365 0.65099 0.70691 0.78945 0.82314 0.83183 0.83317 0.8737 0.8653 0.88101 0.92175 0.92886 0.94634 0.95336 0.95776 0.97932 0.97396 0.9515 0.91034 0.89592 0.88164 0.87835 0.87517 0.81635 0.80744 0.79216 0.79193 0.77784 0.75399 0.73881 0.7019 0.67647 0.67162 0.66053 0.66124 0.67471 1.6562 1.6501 1.5889 1.5872 1.4968 1.4898 1.4636 1.4764 1.5101 1.5118 1.5213 1.5228 1.5474 1.6029 1.6342 1.6989 1.7824 1.7772 1.7641 1.715 1.6484 1.6447 1.6236 1.6235 1.5579 1.4875 1.4112 1.3593 1.3252 1.2853 1.2851 1.2142 1.153 1.098 1.0294 0.95283 0.94398 0.8987 0.8912 0.85214 0.83997 0.77354 0.78238 0.78397 0.78335 0.78097 0.77918 0.873 0.91333 1.0522 1.0556 1.0433 1.0013 1.0008 0.99956 0.99953 0.99389 0.9817 0.94626 0.92857 0.91233 0.91047 0.90238 0.89275 0.88652 0.88123 0.86738 1.3241 1.3211 1.31 1.3097 1.294 1.2755 1.2639 1.2588 1.1582 1.1549 1.1389 1.1388 1.0996 1.0804 1.0803 1.0187 1.0072 0.97963 0.97757 0.95992 0.95985 0.86517 0.85395 0.84556 0.8021 0.78947 0.7603 0.75947 0.77469 0.77284 0.76412 0.75805 0.74536 0.74621 0.75515 0.78552 0.82192 0.83831 0.95116 0.95163 0.99186 1.0185 1.0227 1.0496 1.0534 1.0603 1.0671 1.0654 1.0639 1.0578 1.0747 1.089 1.0893 1.1172 1.1481 1.1517 1.1492 1.1566 1.1544 1.1475 1.1383 1.1324 1.1295 1.1205 1.0462 1.0459 0.99908 0.98247 0.95422 0.94899 0.94864 0.89497 0.89475 0.80758 0.80433 0.79103 0.77148 0.76218 0.73803 0.73568 0.72979 1.7809 1.7775 1.7557 1.7555 1.7353 1.7254 1.7464 1.7415 1.734 1.7312 1.7303 1.7199 1.6742 1.6489 1.6342 1.6339 1.6144 1.6143 1.4902 1.4897 1.4369 1.3936 1.3901 1.2586 1.2296 1.1772 1.1551 1.152 1.1454 1.1089 1.085 1.0652 0.95732 0.91603 0.86002 4.3645 4.3331 4.3076 4.2382 4.2173 4.1877 4.169 4.0967 4.084 4.0667 4.055 4.0398 4.0326 4.0481 4.1337 4.2152 4.2363 4.239 4.2368 4.2248 4.2217 4.2208 4.2219 4.199 4.1683 4.1508 4.1501 4.1211 4.0531 4.0813 4.0736 4.0833 4.1127 4.161 4.1708 4.1717 4.1718 4.1652 4.1508 4.1505 4.1345 4.128 4.1267 4.1247 4.121 4.0642 4.0214 3.9563 3.9282 3.9262 3.9321 3.9101 3.8783 3.883 3.8956 3.899 3.8999 3.8975 3.8902 3.8102 3.7653 3.7616 3.7382 3.7167 3.6843 3.626 3.6254 3.565 3.5522 3.5166 3.5159 3.4835 3.4717 3.4479 3.4513 3.4596 3.4851 3.4859 3.4998 3.5084 3.5113 3.5487 3.5958 3.5963 3.5988 3.6001 3.6292 3.6523 3.6452 3.6426 3.6241 3.614 3.5653 3.5534 3.346 3.3323 3.0217 2.9552 2.9101 2.9096 2.8533 2.8079 2.7935 2.7933 2.7569 2.7029 2.6645 2.6528 2.4982 2.4489 2.4027 2.4025 2.3733 2.3387 2.3023 2.2974 2.2961 2.3132 2.3203 2.3215 2.3212 2.3228 2.3539 2.3792 2.4124 2.4821 2.4864 2.4873 2.5594 2.5605 2.5543 2.5525 2.5504 2.5361 2.5012 2.494 2.4926 2.4713 2.471 2.4557 2.4556 2.4317 2.4314 2.4078 2.3781 2.3718 2.3668 2.366 2.366 2.3596 2.3636 2.364 2.3725 2.3766 2.3798 2.3902 2.3939 2.394 2.3819 2.3157 2.3051 2.3017 2.3005 2.2945 2.2799 2.2702 2.2364 2.2357 2.2355 2.2083 2.2255 2.2231 2.2133 2.1933 1.8983 1.8971 1.8303 1.8295 1.7881 1.7879 1.7327 1.7284 1.6656 1.6654 1.6097 1.6092 1.5672 1.5658 1.5508 1.5508 1.5234 1.5233 1.5201 1.5201 1.5117 1.5116 1.5068 1.4962 1.4831 1.4738 1.4627 1.5244 1.6654 1.6683 1.6888 1.7003 1.7031 1.7031 1.7156 1.7136 1.7017 1.6666 1.6474 1.6468 1.6386 1.5991 1.5979 1.597 1.5963 1.5977 1.6061 1.6052 1.6302 1.6303 1.6385 1.6415 1.6419 1.6479 1.648 1.6454 1.6447 1.6371 1.6331 1.6238 1.6422 1.6476 1.653 1.6572 1.6573 1.6569 1.6569 1.6458 1.6457 1.657 1.7039 1.7137 1.7549 1.832 1.8456 1.8127 1.7889 1.7831 1.7579 1.7532 1.7475 1.7396 1.6721 1.6716 1.6689 1.6689 1.6589 1.648 1.6401 1.6279 1.62 1.6192 1.6226 1.6256 1.6443 1.6467 1.6524 1.6532 1.6759 1.6776 1.6773 1.6778 1.6807 1.6792 1.6758 1.6704 1.6621 1.6616 1.6521 1.6217 1.6004 1.5678 1.5513 1.5415 1.5292 1.4882 1.4839 1.4822 1.4811 1.4594 1.4163 1.4078 1.401 1.3798 1.3731 1.3711 1.3627 1.361 1.3742 1.3824 1.3887 1.3913 1.3885 1.3573 1.3645 1.384 1.4038 1.4386 1.4684 1.5169 1.5473 1.5674 1.5732 1.5742 1.5741 1.5702 1.5697 1.5372 1.5196 1.5244 1.527 1.5561 1.5648 1.5862 1.5998 1.6061 1.6173 1.6216 1.636 1.6433 1.6461 1.6799 1.6893 1.6958 1.7454 1.7575 1.7559 1.7523 1.7025 1.6843 1.6712 1.62 1.6109 1.6107 1.6102 1.5856 1.5591 1.5524 1.5203 1.5139 1.5155 1.5417 1.5672 1.5913 1.6005 1.6129 1.6181 1.6705 1.6804 1.6868 1.729 1.7308 1.7333 1.7315 1.7306 1.7198 1.5764 1.5617 1.5481 1.4073 1.4021 1.296 1.2618 1.2612 1.1667 1.1516 1.1435 1.1435 1.0916 1.0883 1.0855 1.0854 1.0728 1.0725 1.0382 1.0379 1.0303 1.0283 1.0154 1.005 0.978 0.93861 0.88887 0.86828 0.84345 0.84304 0.80863 0.76439 0.74121 0.76211 0.76249 0.85933 0.91117 0.96171 0.999 1.0663 1.0742 1.0735 1.0953 1.0706 1.0961 1.0963 1.1423 1.1661 1.1695 1.1736 1.1276 1.0827 0.97933 0.97326 0.95832 0.89525 0.89522 0.88788 0.88365 0.87675 0.86281 0.87354 0.87381 0.87427 0.87451 0.88089 0.88107 0.92139 0.9397 0.93991 0.95826 1.0067 1.0443 1.0685 1.0707 1.7678 1.7907 1.8162 1.8173 1.8412 1.8583 1.862 1.862 1.8571 1.8425 1.8996 1.9979 2.0237 2.0859 2.0949 2.0895 2.0802 2.0165 1.9878 1.915 1.9081 1.908 1.8934 1.8453 1.8421 1.7736 1.7542 1.7064 1.696 1.6959 1.6163 1.6 1.5679 1.5678 1.539 1.4929 1.4534 1.4306 1.4303 1.393 1.381 1.3588 1.3168 1.3143 1.2769 1.2413 1.2163 1.1999 1.1984 1.1833 1.1746 1.1713 1.17 1.1566 1.1434 1.1288 1.1019 1.0458 0.99632 0.98445 0.92479 0.92693 0.93495 0.98933 0.99564 1.0025 1.0353 1.0321 1.0179 1.0068 1.0065 0.97785 0.98622 0.98351 0.98382 0.9746 0.9494 0.94894 0.94894 0.93653 0.88871 0.88821 0.85072 0.80201 0.77811 0.77704 0.76671 0.76659 0.7318 0.73065 0.72447 0.72442 0.72214 0.75175 0.76825 0.77404 0.77319 0.8321 0.85087 0.84737 0.84188 0.85952 0.86376 0.86397 0.88313 0.88268 0.8809 0.88521 0.88397 0.8775 0.85103 0.84649 0.80906 0.80653 0.78569 0.74871 0.7446 0.67811 0.64264 0.60427 0.60412 0.58481 0.58257 0.57717 0.5695 0.5694 0.54691 3.6102 3.6791 3.6948 3.7407 3.7413 3.7941 3.7603 3.7573 3.7319 3.7287 3.6967 3.6821 3.6794 3.5392 3.5378 3.533 3.5113 3.508 3.5199 3.5013 3.4947 3.4752 3.4418 3.4374 3.3626 3.3274 3.2732 3.2493 3.2491 3.2228 3.189 3.1888 3.1753 3.1749 3.1638 3.1416 3.1382 3.1013 3.0618 3.0602 3.0326 3.0335 3.0238 3.0158 2.9951 2.9949 2.9946 2.9934 2.9963 3.044 3.0457 3.027 3.0237 3.0098 3.0141 3.0124 3.0049 3.0014 3.0116 3.011 2.9954 2.9564 2.9457 2.9195 2.9213 2.9606 2.98 3.0529 3.0564 3.0366 3.0493 3.0608 3.0554 3.0513 3.0225 3.0163 3.0163 3.0114 3.0114 3.0052 3.0019