# vtk DataFile Version 3.0
vtk output
ASCII
DATASET POLYDATA
POINTS 2 float
71.8806 156.998 12.8055
71.8806 156.998 86.7755
LINES 1 3
2 0 1
CELL_DATA 1
scalars Radius float
LOOKUP_TABLE default
1 
scalars Flowrate float
LOOKUP_TABLE default
30555.9 
POINT_DATA 2
scalars Pressure float
LOOKUP_TABLE default
0 -149.395 
