# For a description of the Tecplot format see the Tecplot User's guide.
#
Variables=x,y,z,s_u,s_v,s_w,s_p,mono_f_vel_u,mono_f_vel_v,mono_f_vel_w,const,u_nu,v_nu,w_nu,p_nu,x_nu,y_nu,z_nu,const,u_ref,v_ref,w_ref,vol_ref,x_ref,y_ref,z_ref,const,I1,I2,I3,J,p1,p2,p3
Zone f=fepoint, n=246, e=987, et=brick, c=black
38.0652 186.273 153.575 38.065242356520919 186.27336913423539 153.57483533752017 -3.9035558433750532 -1.6416535206467488e-07 8.7143353311229576e-08 -1.3985001897400539e-07 -3.6457854904452436 -3.6498873455526053e-06 -2.6394581825739399e-07 -4.3733298937420617e-05 0.00023049845847356539 1.7771188913707809e-11 -5.1479005403793005e-11 -6.5692402976395510e-12 0.00024079241890902428 37.813509013000001 185.98771463999995 152.49007815000002 1568.1286420541724 0.0000000000000000 0.0000000000000000 0.0000000000000000 0.0000000000000000 0.75279903070457799 0.18890164463553646 0.015800472096360405 0.12570064039599815 3934.4105707827180 0.12569993002871588 0.0000000000000000 
38.007098392853209 201.89525262318750 167.23824867857610 38.007098392853209 201.89525262318745 167.23824867857607 -3.6050234480621421 -3.2499911051355752e-07 1.4030064697251380e-07 -1.1611210573227657e-06 -3.1590387917212217 -3.6466711479665728e-06 -2.7782784700614016e-07 -4.7242160281235623e-05 0.00021391265206467279 3.0602542271136987e-11 -5.6023939408658135e-11 1.4507148004558605e-10 0.00017967512323128189 37.755586870999998 201.59457435000007 166.06645798000000 1115.6658590402926 0.0000000000000000 0.0000000000000000 0.0000000000000000 0.0000000000000000 0.75282956514743460 0.18891700214756482 0.015802403117542767 0.12570334639288475 3934.9020642450550 0.12570760857025048 0.0000000000000000 
65.065341333358788 203.64124114300944 148.39923978420734 65.065341333358830 203.64124114300932 148.39923978420742 -4.7005199220817948 5.5305079892735579e-07 1.0054898759157230e-06 -5.4533033020388539e-07 0.0000000000000000 -5.4357009335891192e-06 -6.3243876648966825e-07 -4.2557591981091560e-05 0.00029624903778497453 -4.0516092170685855e-11 -4.5127071433906294e-11 9.4595403946464290e-12 0.0000000000000000 64.706898088665852 203.32599865957309 147.35284761981995 1170.9507322714735 0.0000000000000000 0.0000000000000000 0.0000000000000000 0.0000000000000000 0.75272096912815556 0.18886250034969568 0.015795564823482752 0.12568939033103690 3933.4650145604501 0.12568040213319118 0.0000000000000000 
58.305467803310364 219.11110134836929 155.04006443260801 58.305467803310407 219.11110134836935 155.04006443260809 -5.3943218612032693 4.7229476588884178e-07 1.1557991528695904e-06 -7.7308437180330584e-07 0.0000000000000000 -4.7694628568517575e-06 -2.9312629537536772e-07 -4.4109580146389771e-05 0.00030274461363053817 -1.7661536182158079e-12 -7.1290855235672302e-11 5.2833047129233697e-12 0.0000000000000000 57.976517148132935 218.79386635806736 153.94597399654558 871.12382118538517 0.0000000000000000 0.0000000000000000 0.0000000000000000 0.0000000000000000 0.75269069297392488 0.18884724408564774 0.015793642916511811 0.12568474638674901 3932.3802211165753 0.12567276111555922 0.0000000000000000 
106.68028408495377 203.25643140584970 168.67181990896071 106.68028408495371 203.25643140584970 168.67181990896066 -4.4777335281507025 4.1648677362198062e-08 2.3487251672352946e-07 -3.4588237105041556e-07 0.0000000000000000 -7.4452858273565958e-06 -2.7903741842139063e-07 -4.7610311517842785e-05 0.00041755312206481407 -6.5837459580686970e-11 5.3866758470232358e-11 -3.6282716685086325e-11 0.0000000000000000 106.16678147036436 202.95444406841523 167.49089761680582 1451.6544664497774 0.0000000000000000 0.0000000000000000 0.0000000000000000 0.0000000000000000 0.75279255870778417 0.18889840802505112 0.015800067426938399 0.12569640415012248 3933.6911526077211 0.12569831834084966 0.0000000000000000 
93.298108510780850 213.79602890773307 153.54503536303943 93.298108510780835 213.79602890773310 153.54503536303943 -5.3900178392987099 -3.0769368285152814e-07 5.8623384638617318e-07 -8.1815381599678713e-07 0.0000000000000000 -6.7050590805139976e-06 -2.8840318369582896e-07 -4.3725646103054412e-05 0.00037294636170130067 -2.6663184044584619e-11 -1.9857388160440806e-11 1.5893854578156178e-11 0.0000000000000000 92.835659459041835 213.48390549527133 152.46046799605259 1374.0431229362807 0.0000000000000000 0.0000000000000000 0.0000000000000000 0.0000000000000000 0.75267958206993768 0.18884172594194404 0.015792957890490088 0.12568200906896967 3932.0479937664945 0.12567003460994761 0.0000000000000000 
106.31179664490578 179.06722960826318 168.38074628103649 106.31179664490581 179.06722960826309 168.38074628103644 -4.4738597568450826 7.1055833392574832e-07 -3.2781356015937408e-07 -7.4078763929759954e-08 0.0000000000000000 -7.4249031698503387e-06 -2.5754225604912584e-07 -4.7535561757905409e-05 0.00044343689113708954 -1.1512856943459343e-11 -4.9403736572538000e-12 -1.8439856896501877e-11 0.0000000000000000 105.79969982540383 178.78850535694073 167.20167807608388 2450.7686744678872 0.0000000000000000 0.0000000000000000 0.0000000000000000 0.0000000000000000 0.75269046040176268 0.18884718135771522 0.015793641920188742 0.12568600800761562 3933.9718684691907 0.12567276299627209 0.0000000000000000 
76.119315443522339 193.52277866084211 158.13336396050190 76.119315443522297 193.52277866084208 158.13336396050184 -4.1876095173943328 1.6179379903229910e-07 7.1370906970391266e-07 -4.2242842229341121e-07 0.0000000000000000 -6.2241444433686539e-06 -6.8961989219800018e-07 -4.4664015932293575e-05 0.00034109860121769436 -2.9636530586085931e-11 -1.5292301807162195e-11 3.0366785972433825e-11 0.0000000000000000 75.717375094302042 193.21622810126507 157.03338180528999 1144.4826376458880 0.0000000000000000 0.0000000000000000 0.0000000000000000 0.0000000000000000 0.75289765954560128 0.18895131659382489 0.015806726009526241 0.12571077984295795 3932.9119329960422 0.12572479344335760 0.0000000000000000 
120.95493633350205 178.21293383339480 134.32944727098871 120.95493633350203 178.21293383339480 134.32944727098874 -5.4003738559476604 -8.6204185159997474e-08 -5.2380207359456755e-07 -5.0951337828736428e-07 -5.3991842834501869 -8.2348793581932256e-06 -2.5678310136556526e-07 -3.8790946956523964e-05 0.00043270123647712593 -7.6355468605654296e-12 -1.9147293397627085e-11 -2.6617014693354111e-11 0.00047766779228693526 120.38697531999998 177.93503117000000 133.36727978000002 3315.6872353797526 0.0000000000000000 0.0000000000000000 0.0000000000000000 0.0000000000000000 0.75278428464182434 0.18889428241616693 0.015799553206905563 0.12568569563311616 3931.7208466290449 0.12569626992778921 0.0000000000000000 
122.99125855352860 150.91455645033719 167.29218228850601 122.99125855352854 150.91455645033724 167.29218228850598 -5.5188595941039376 1.5233572606391836e-07 -8.3474380216656416e-08 8.6435183749102407e-08 0.0000000000000000 -8.3475172551472632e-06 -2.3252502839854472e-07 -4.7256010809071374e-05 0.00040971933522603845 7.4455195621740364e-12 -1.3550236782498445e-11 2.0733944568133999e-11 0.0000000000000000 122.41552888508200 150.66290700972726 166.12004804243418 2788.4559803272532 0.0000000000000000 0.0000000000000000 0.0000000000000000 0.0000000000000000 0.75259773714230738 0.18880063869095884 0.015787801379663048 0.12567252998323536 3932.6340789533583 0.12564951617346515 0.0000000000000000 
103.68497496455326 159.28388421366319 152.06453175603841 103.68497496455326 159.28388421366313 152.06453175603841 -4.8871404861715817 4.1811435727551563e-07 -5.7649699253709417e-07 -3.9495439402070972e-07 0.0000000000000000 -8.7918847213362420e-06 -8.8277578019162729e-07 -4.2690051444401459e-05 0.00042355635594667416 9.1869707765422674e-13 -1.5806341229923943e-11 -8.3858298273667192e-12 0.0000000000000000 103.16264437007636 159.03337825173907 151.00577047027593 2614.5647304445974 0.0000000000000000 0.0000000000000000 0.0000000000000000 0.0000000000000000 0.75253339339033687 0.18876835023952146 0.015783750695499494 0.12566612646128481 3934.4514605093154 0.12563341220328256 0.0000000000000000 
135.97034804091666 135.45495989522109 210.57884086669966 135.97034804091666 135.45495989522107 210.57884086669964 -3.9843488399446398 3.2315925795403094e-07 8.2466006268634263e-07 -8.6515971877267678e-07 -3.3030589470390561 -9.0654475563567743e-06 -2.1878719874690589e-07 -5.8372331373790485e-05 0.00028582789577944617 -3.1236060552326506e-11 -8.8306011654699517e-11 5.1479332640541190e-11 0.00025736744839185630 135.34510260000002 135.21817816000001 209.13097830999999 2383.2023779596761 0.0000000000000000 0.0000000000000000 0.0000000000000000 0.0000000000000000 0.75280566870183707 0.18890499669000740 0.015800895248653388 0.12569948846400320 3934.2803218103436 0.12570161346115277 0.0000000000000000 
116.91493918440143 101.35901373760139 191.73731256498780 116.91493918440143 101.35901373760136 191.73731256498783 -5.0027677845020628 -4.4667388903969862e-07 -4.8095739701399105e-07 -1.2588266148921977e-06 -5.4365580524791790 -8.0114094224148502e-06 -1.8848862877451913e-07 -5.3533693438578833e-05 0.00030769399691777625 2.5378248858503591e-11 3.2716246132845900e-11 6.5822342819478753e-11 0.00031014060809831740 116.36239092999996 101.15502254000000 190.40946719000002 2640.5657475930620 0.0000000000000000 0.0000000000000000 0.0000000000000000 0.0000000000000000 0.75282623148838834 0.18891535378046312 0.015802199386507482 0.12569948846400333 3931.2380450092041 0.12570679856342790 0.0000000000000000 
122.31278684031504 108.34492947828886 221.80629121707770 122.31278684031506 108.34492947828883 221.80629121707767 -3.3843129701075392 -3.7990252146231841e-07 -9.4201402717003720e-07 -1.5152936322424567e-07 -2.7684258652173734 -8.3099880163195845e-06 -1.9469649727157323e-07 -6.1255620154632110e-05 0.00020945358374343972 4.1574353055648496e-11 6.2427873696459546e-11 -1.6897820818484789e-11 0.00016030830389605959 121.73964556999999 108.13421982999998 220.28691180000004 1907.3938422647439 0.0000000000000000 0.0000000000000000 0.0000000000000000 0.0000000000000000 0.75280007346707323 0.18890215538726210 0.015800534602278371 0.12569948846400320 3935.5000464108334 0.12570017750020587 0.0000000000000000 
105.30341051272586 122.16314099526164 208.15761290756552 105.30341051272582 122.16314099526157 208.15761290756561 -3.2743906726755152 4.8319027304850238e-08 -5.8097736574568253e-08 -9.9072466207446647e-07 0.0000000000000000 -7.3691249115048754e-06 -2.0697573922812132e-07 -5.7750542871326527e-05 0.00024890710793054106 -3.2489882037974881e-12 -2.1629851893308799e-11 9.1229628739830931e-11 0.0000000000000000 104.79516072874441 121.93914218401807 206.72517314201556 2433.5838456336692 0.0000000000000000 0.0000000000000000 0.0000000000000000 0.0000000000000000 0.75278835804075495 0.18889633818197182 0.015799812543481968 0.12569948846400314 3935.7420584779479 0.12569730453168257 0.0000000000000000 
38.014673546382639 163.39256462168237 155.77615022152315 38.014673546382632 163.39256462168228 155.77615022152310 -2.9814786877768791 1.0650337097497312e-07 8.5149137908333818e-08 3.5070286326277407e-07 -3.6125761818003648 -3.6470901574325856e-06 -2.4361331218969440e-07 -4.4298612184856534e-05 0.00014201758836337398 -2.1576234285827115e-11 -1.9394381586236325e-11 1.8157641854586977e-11 0.00015365561829469389 37.763133124999982 163.12891490999996 154.67737105000003 1609.7391759139125 0.0000000000000000 0.0000000000000000 0.0000000000000000 0.0000000000000000 0.75280780678567316 0.18890604362333996 0.015801023332774170 0.12572602335677999 3935.0754936405992 0.12570211314359181 0.0000000000000000 
38.052447634116632 176.57855631018361 167.40098369164443 38.052447634116625 176.57855631018359 167.40098369164440 -2.7158913304169463 1.2590055713297411e-07 6.4746562056646099e-08 -6.2207161285302336e-07 -3.2913236539357862 -3.6491796129856091e-06 -2.5533073774730575e-07 -4.7283951785492835e-05 0.00012405626557337982 -6.4954577796425667e-12 -9.0765992368264515e-12 4.6138993557591409e-11 0.00012485454617393446 37.800763103000001 176.30222544999998 166.22815640000002 1278.4532315353756 0.0000000000000000 0.0000000000000000 0.0000000000000000 0.0000000000000000 0.75261238264919839 0.18880799815693416 0.015788725866350769 0.12569948846400333 3937.0966881628333 0.12565322799958673 0.0000000000000000 
29.537636133995811 163.90568761908497 176.40649811564987 29.537636133995814 163.90568761908500 176.40649811564984 -2.2939116013026459 1.4751547999174365e-07 7.7970957472791603e-08 -9.2428042304363714e-07 -2.1385346321997640 -3.1781880920344462e-06 -2.4406929163833802e-07 -4.9596631687298665e-05 8.7789676481190153e-05 6.7086699392659429e-12 1.2059330268208536e-11 -1.1572470464274696e-11 9.2416693473604391e-05 29.318435967000010 163.64154443000001 175.17630729999999 1176.2421003033126 0.0000000000000000 0.0000000000000000 0.0000000000000000 0.0000000000000000 0.75269439889056411 0.18884917769097906 0.015793894810134511 0.12569948846400320 3937.7848439672302 0.12567377808034169 0.0000000000000000 
45.610171546913747 139.62367392632353 176.81226529262531 45.610171546913755 139.62367392632356 176.81226529262528 -2.5570260221911787 -6.5808341684894489e-07 -4.3375914969162011e-07 -1.3213881280682146e-06 0.0000000000000000 -4.0672304236766266e-06 -2.2249164607912600e-07 -4.9700835574373325e-05 0.00010010300135868933 3.8737147946508946e-11 1.0055625077562813e-11 3.9972985035539508e-11 0.0000000000000000 45.329653981089926 139.38288308181924 175.57948981227980 1838.0408446142237 0.0000000000000000 0.0000000000000000 0.0000000000000000 0.0000000000000000 0.75307399282786502 0.18903959920685945 0.015817775777476780 0.12574027651355543 3934.6685041354353 0.12576872924460772 0.0000000000000000 
58.987045332126186 137.32310840919052 224.15969559408094 58.987045332126179 137.32310840919055 224.15969559408089 -1.4057298387002766 1.0931084576342799e-07 3.5844408574539674e-07 -3.8596282306938922e-07 -1.5154283939259161 -4.8071638979740872e-06 -2.2044729544590247e-07 -6.1859991082380272e-05 8.6095014702453307e-05 -5.0287276376675408e-12 -1.2972305486585422e-11 3.2074321508367542e-11 2.6879622200592787e-05 58.655494429999983 137.08453005000001 222.62532541000004 1283.0721019573000 0.0000000000000000 0.0000000000000000 0.0000000000000000 0.0000000000000000 0.75283290544502712 0.18891864549378504 0.015802605155567608 0.12569948846400314 3938.0839486827003 0.12570840471036332 0.0000000000000000 
37.589829449277502 150.51044637242256 220.16628557302676 37.589829449277495 150.51044637242259 220.16628557302676 -1.4176573351647492 2.5579516977372209e-07 1.7305945991563913e-07 -1.7670459538185066e-07 -1.5950910148931867 -3.6235901698655751e-06 -2.3216590908092799e-07 -6.0834455100022833e-05 7.7838053742303748e-05 1.2267410797167257e-11 -2.3135388534001916e-11 3.1141118676528638e-11 9.7526006452822422e-05 37.339909825999996 150.25918557000000 218.65735269999999 1388.6032526015726 0.0000000000000000 0.0000000000000000 0.0000000000000000 0.0000000000000000 0.75282943057396523 0.18891691359401258 0.015802389372212598 0.12569948846400325 3937.9439238112295 0.12570755134733122 0.0000000000000000 
59.443477988915546 159.03053833135618 204.94691408552012 59.443477988915554 159.03053833135618 204.94691408552009 -1.6212975259763736 3.3798591442535281e-07 -8.2799575904132491e-08 -7.3476648933089176e-08 -1.6550481704235980 -4.8324111875385627e-06 -2.3973710092131939e-07 -5.6926012672986396e-05 0.00013107408313557268 -6.9658368629446018e-11 1.4232274109536362e-11 9.8084909086332752e-12 8.6423783749955109e-05 59.110185776999977 158.77108363999997 203.53492589999999 1913.3477276736232 0.0000000000000000 0.0000000000000000 0.0000000000000000 0.0000000000000000 0.75257964187544668 0.18879157660559229 0.015786666763130484 0.12569948846400331 3939.5070786526699 0.12564503990124673 0.0000000000000000 
45.614443811098354 131.94078049857927 199.25311618551669 45.614443811098369 131.94078049857933 199.25311618551675 -1.5984025797050301 -3.2801122654679676e-07 -8.6255564818755555e-08 3.2725223771444829e-07 0.0000000000000000 -4.0674667355634367e-06 -2.1566440408515852e-07 -5.5463805039568374e-05 9.4565272071944455e-05 -1.8838697129048900e-11 3.9867701561292675e-12 -4.7045552420983317e-11 0.0000000000000000 45.333909946406948 131.70737839773392 197.87739647919071 1878.7089811415260 0.0000000000000000 0.0000000000000000 0.0000000000000000 0.0000000000000000 0.75273289541174182 0.18886851520906581 0.015796323200962799 0.12570289871203125 3939.1234853632204 0.12568343866096618 0.0000000000000000 
73.608693102554156 182.72564673109162 193.51414664180157 73.608693102554128 182.72564673109170 193.51414664180163 -2.2108656249546543 3.9669430513015761e-07 -2.6604807277383027e-07 8.2082448379418328e-08 -1.4545071527185374 -5.6159512814568657e-06 -2.6079320436522840e-07 -5.3989997008840877e-05 0.00024474764436045754 -1.8633771494735071e-10 4.8949626003545729e-11 -2.6326117466885313e-11 0.00022077059790476242 73.221359999000001 182.44340413000006 192.17498315000009 1916.8989385598338 0.0000000000000000 0.0000000000000000 0.0000000000000000 0.0000000000000000 0.75302332341203704 0.18901410495026325 0.015814568918444401 0.12573518030664277 3935.4475433367384 0.12575599860180803 0.0000000000000000 
82.666026252595202 141.83197480765642 210.95076407131512 82.666026252595202 141.83197480765645 210.95076407131509 -2.4033905943368881 3.3982064306704963e-07 2.8468901615475813e-07 -1.6563956207923524e-07 -1.7437779560403897 -6.1169520375603526e-06 -2.2445399988628266e-07 -5.8467843892129327e-05 0.00027012698473007990 -1.7116787442051140e-11 -9.6265295021147466e-11 6.1956197601743775e-11 0.00039550002464635859 82.244139041999972 141.58906020999996 209.50053243000002 2596.9063225776295 0.0000000000000000 0.0000000000000000 0.0000000000000000 0.0000000000000000 0.75280688353874725 0.18890560061315653 0.015800970302908390 0.12570899050890788 3937.3255201413554 0.12570191945567902 0.0000000000000000 
97.137709217639966 151.06283972772155 178.63812588794821 97.137709217639923 151.06283972772147 178.63812588794823 -3.7458757253517794 1.4737701438561561e-06 -2.0113504971630360e-07 -5.3751705003260712e-07 0.0000000000000000 -8.8516964101675556e-06 5.2923655908656186e-08 -5.0109908068561315e-05 0.00039491090681450906 -4.7831789795660485e-11 4.4194588351180397e-12 -3.1452532706063069e-11 0.0000000000000000 96.634805924592328 150.82018211309926 177.41298922508184 2674.5721001240636 0.0000000000000000 0.0000000000000000 0.0000000000000000 0.0000000000000000 0.75289799419158843 0.18895114271367400 0.015806661376700785 0.12570990584978853 3933.8311264184053 0.12572451338875268 0.0000000000000000 
110.74217622231085 161.07661727990450 196.02126163182629 110.74217622231082 161.07661727990453 196.02126163182615 -4.4167064700210998 1.0082535335041483e-06 1.3972310812909881e-07 -4.6690479513972247e-08 0.0000000000000000 -7.6699668703494872e-06 -2.4155529940173004e-07 -5.4633841892026691e-05 0.00039465807881673367 3.2698312753162669e-12 -3.1137321007666581e-11 1.7165264945421642e-11 0.0000000000000000 110.21317731831955 160.81519484644704 194.66612826377516 2907.4611518241991 0.0000000000000000 0.0000000000000000 0.0000000000000000 0.0000000000000000 0.75277301771554372 0.18888855563416670 0.015798825652648774 0.12568983678000839 3933.0504065947648 0.12569337819147150 0.0000000000000000 
69.206222343074174 138.01148743979434 192.14592188005705 69.206222343074174 138.01148743979425 192.14592188005705 -1.7191798569107020 4.2192410264129729e-07 -5.8798733460367648e-09 9.6483830934850642e-07 0.0000000000000000 -5.3724313378578081e-06 -2.2105900085445110e-07 -5.3638627196705972e-05 0.00023296029542877914 -2.1706655384151532e-10 7.7095961068036664e-11 -6.6283446155460365e-11 0.0000000000000000 68.835684850694804 137.77224705707783 190.81547373645992 2302.4579037184249 0.0000000000000000 0.0000000000000000 0.0000000000000000 0.0000000000000000 0.75341120519605509 0.18920884829727938 0.015839012518580834 0.12577393327136471 3934.2853850966235 0.12585314194715544 0.0000000000000000 
84.302265902271003 175.18286095496623 175.71777231997135 84.302265902271003 175.18286095496623 175.71777231997120 -3.0323998948943065 8.2496648549394241e-07 5.9692174795138673e-07 -4.4782834317755222e-07 0.0000000000000000 -8.3299823867389424e-06 3.8759673831348514e-08 -4.9006967351622740e-05 0.00035730799190282974 -1.3957212420354511e-10 -4.0561102210179643e-11 4.9519270688650363e-12 0.0000000000000000 83.849638243891135 174.91172786385235 174.51222656391082 1667.9065348682720 0.0000000000000000 0.0000000000000000 0.0000000000000000 0.0000000000000000 0.75305284549824481 0.18902903306481181 0.015816455971174436 0.12573422314016466 3934.0346123598970 0.12576348404818438 0.0000000000000000 
101.82801260474034 227.02847092287726 182.68586607187751 101.82801260474035 227.02847092287723 182.68586607187751 -4.6207070440290003 -5.6509259769538455e-07 4.5296564516227456e-07 9.7596487414203732e-08 -4.8601838006978069 -7.1768854277287630e-06 -3.0016190899484485e-07 -5.1209217851233557e-05 0.00038086449512086441 5.1342611568498625e-11 -4.0600317190265373e-11 3.1593446215072623e-11 0.00035368980895596902 101.33302161000000 226.70362169000003 181.41567680000000 527.87335979314730 0.0000000000000000 0.0000000000000000 0.0000000000000000 0.0000000000000000 0.75280513026656692 0.18890472990414237 0.015800862216907244 0.12569948846400320 3932.6697698505232 0.12570147944392782 0.0000000000000000 
109.77311155150028 213.15328273467875 193.39592925810877 109.77311155150028 213.15328273467870 193.39592925810874 -4.1998204866097861 1.6498844113789843e-07 2.2905636526168486e-08 -2.3005395368761359e-08 -3.9872662472418718 -7.6163636583137509e-06 -2.8783203379068029e-07 -5.3959637935141462e-05 0.00041071166471043564 -1.1505114055062170e-10 9.4914228021897031e-11 -3.3834483499065031e-12 0.00045472459807782239 109.24780967000000 212.84177746000000 192.05751878999999 1255.4436111582911 0.0000000000000000 0.0000000000000000 0.0000000000000000 0.0000000000000000 0.75277735758411002 0.18889080930169491 0.015799117854988588 0.12569948846400314 3933.9045130715754 0.12569454483709605 0.0000000000000000 
92.137311516930794 213.32773649312554 179.21355075276799 92.137311516930808 213.32773649312551 179.21355075276793 -4.4259037986542911 6.1764815797260155e-08 8.0284398931954125e-07 -9.1543274509344906e-07 0.0000000000000000 -6.6408503081594192e-06 -2.8798705187238482e-07 -5.0317502677754706e-05 0.00035316978766050807 -2.8595871519499469e-12 -1.1028990094448888e-10 6.3392246421401842e-11 0.0000000000000000 91.679290954562077 213.01606344388193 177.96547951144200 663.90724330950775 0.0000000000000000 0.0000000000000000 0.0000000000000000 0.0000000000000000 0.75278665592813576 0.18889538554216168 0.015799680673457925 0.12569936711288376 3933.4457309644686 0.12569678099283929 0.0000000000000000 
64.362863799570363 211.97078920835915 167.83957285770612 64.362863799570334 211.97078920835912 167.83957285770612 -4.2981634533489803 8.4547299530535842e-07 1.0940530603333827e-06 -6.9332508845199547e-07 0.0000000000000000 -5.7142233085219168e-06 -5.1932687074205974e-07 -4.6988578046578490e-05 0.00027314271739147823 -6.9665491999259298e-11 -1.0606049970933837e-10 1.8944761147560950e-11 0.0000000000000000 64.005185165032174 211.65254642520509 166.67194214610197 754.86350931875324 0.0000000000000000 0.0000000000000000 0.0000000000000000 0.0000000000000000 0.75286074233244793 0.18893253712443620 0.015804338221978353 0.12570483243334965 3932.9133241441587 0.12571530050475130 0.0000000000000000 
61.237430137941146 184.74213858920675 163.95158740929534 61.237430137941146 184.74213858920669 163.95158740929531 -3.2715665151464863 -3.3548891599144613e-08 5.0651438254900181e-08 -3.5958628233535609e-07 0.0000000000000000 -4.9316425389800411e-06 -2.6258510898991005e-07 -4.6398122376334345e-05 0.00023525709052874723 -7.5833133014151268e-11 9.1981118484989032e-12 3.5300077519896950e-11 0.0000000000000000 60.897293923099205 184.45795670032331 162.80073215801758 1456.3555990979894 0.0000000000000000 0.0000000000000000 0.0000000000000000 0.0000000000000000 0.75302680769352281 0.18901600095534982 0.015814825310722206 0.12573587978253226 3933.2890719439570 0.12575700655714958 0.0000000000000000 
88.730594611090424 196.33858096439650 139.91957338664457 88.730594611090467 196.33858096439658 139.91957338664454 -5.0438041341211370 1.8347771154297086e-07 7.4660368753435943e-07 -3.1776860511593249e-07 0.0000000000000000 -6.4524098742357872e-06 -2.7289003695640801e-07 -4.0226530917453207e-05 0.00038627186141421664 -4.8244763449340674e-11 1.5872758203145863e-11 9.1959848221762551e-12 0.0000000000000000 88.285570817050015 196.04324661832075 138.92179778727578 2284.4992455537940 0.0000000000000000 0.0000000000000000 0.0000000000000000 0.0000000000000000 0.75274580397527413 0.18887498351086587 0.015797133477232397 0.12568463061938348 3932.5118072557516 0.12568664570136426 0.0000000000000000 
82.246207764067861 174.74204281761837 154.87704450871342 82.246207764067847 174.74204281761834 154.87704450871342 -3.7889191912381524 3.9771302668468055e-07 1.6883605033070643e-07 -1.9392002828532210e-07 0.0000000000000000 -6.8780069982492947e-06 -3.5528285864965466e-07 -4.3775685383855187e-05 0.00037430190742548990 -5.3937134277463619e-11 1.1642410707343897e-11 2.5516039552524723e-11 0.0000000000000000 81.814121362732124 174.46733636348887 153.79871785113039 1849.3455604645501 0.0000000000000000 0.0000000000000000 0.0000000000000000 0.0000000000000000 0.75295579852180450 0.18898055904772273 0.015810403047829005 0.12572611519202667 3933.5926633039348 0.12573941895019211 0.0000000000000000 
77.024951771108618 237.80568863050550 172.68830828824326 77.024951771108604 237.80568863050547 172.68830828824323 -5.7509260624468466 2.1528555037407706e-07 -5.4481151528970906e-08 -6.1253617905064316e-07 -5.6024738318037777 -5.8049195013620816e-06 -3.0973882925167118e-07 -4.8641774182456299e-05 0.00036954914571177630 -2.4977948519145101e-11 2.9177191812899724e-12 -1.8419721348029635e-11 0.00037829722240276779 76.624585496999998 237.47047479999995 171.48180167999999 450.61312636181810 0.0000000000000000 0.0000000000000000 0.0000000000000000 0.0000000000000000 0.75284345955583298 0.18892406768959538 0.015803301209861776 0.12569948846400320 3930.3433121926746 0.12571118401976625 0.0000000000000000 
66.979755898217064 237.64375101288442 156.97939176599866 66.979755898217050 237.64375101288442 156.97939176599863 -6.4321844520371618 -1.5424807086380779e-08 -2.9563739831734052e-08 -6.1322314173042467e-07 -6.7210626546662562 -5.2492757323109749e-06 -3.0959493338422744e-07 -4.4607613154890029e-05 0.00034215240083551064 -7.4372457086901741e-12 1.3709446195647542e-12 -1.9065583148302735e-11 0.00034305210099143878 66.617712469000011 237.30869291999991 155.87294816000005 715.16986369778181 0.0000000000000000 0.0000000000000000 0.0000000000000000 0.0000000000000000 0.75274983965303643 0.18887688044818979 0.015797355365354874 0.12568685004158070 3929.4732379264174 0.12568752697216309 0.0000000000000000 
87.672838382524972 237.25583156544778 148.05494707174225 87.672838382525001 237.25583156544778 148.05494707174222 -6.3417885268354803 -2.7025543130512126e-07 -3.0021710383233508e-08 -3.2704581791186546e-07 -7.0461694786351350 -6.3939007435842576e-06 -3.0925021288226859e-07 -4.2315752523502954e-05 0.00035314188782129891 -1.3019892724791561e-11 -7.3411358489332815e-12 -1.9755699437588128e-11 0.00034853580252611210 87.231849972999981 236.92114653999997 147.00535059000001 1226.5804134212974 0.0000000000000000 0.0000000000000000 0.0000000000000000 0.0000000000000000 0.75279257312625103 0.18889841412522432 0.015800068062378131 0.12568844891918565 3929.1997013797422 0.12569832129322747 0.0000000000000000 
87.463597136235336 225.10411199582319 163.26490147290542 87.463597136235364 225.10411199582325 163.26490147290542 -5.5619342095820912 -3.2408669243815808e-07 4.5457794865125616e-07 -4.1091692603493619e-07 0.0000000000000000 -6.3823267003049197e-06 -2.9845186830246289e-07 -4.6221776556831795e-05 0.00037082274659280904 5.3978108968961178e-13 -3.3384565379845257e-11 -2.3268921206919610e-11 0.0000000000000000 87.023406990868523 224.78111344523825 162.11842028882040 681.06850806740897 0.0000000000000000 0.0000000000000000 0.0000000000000000 0.0000000000000000 0.75273987312313961 0.18887184492399936 0.015796719342173509 0.12568831510782000 3931.6356512652751 0.12568499958963222 0.0000000000000000 
87.260587006056497 196.76781458763085 187.07735964510408 87.260587006056525 196.76781458763082 187.07735964510405 -3.3817695183069620 4.7833182814167027e-07 -1.8980010030580458e-07 -2.6539375361144093e-07 0.0000000000000000 -6.3710973200459264e-06 -2.7327146800981700e-07 -5.2336984497525225e-05 0.00034876546498316808 -1.7002157014285030e-10 1.6624584015819418e-10 1.0230435966357362e-11 0.0000000000000000 86.821171352877627 196.47206744171046 185.77919734079927 1095.9217422697654 0.0000000000000000 0.0000000000000000 0.0000000000000000 0.0000000000000000 0.75287073501436419 0.18893757991066853 0.015804974432411485 0.12571300063767377 3934.8247416523309 0.12571783285358168 0.0000000000000000 
30.241879685775839 214.76083092575442 131.85038109066463 30.241879685775839 214.76083092575439 131.85038109066463 -4.3802145500662251 4.3658509185444371e-08 3.2977194121745964e-07 3.0218935776619638e-08 -4.7204347213703892 -3.2171428873682521e-06 -2.8926054809752522e-07 -3.8154305189219702e-05 0.00023120240161301930 -7.5057248409779694e-12 -3.3229511400039253e-11 -1.1526714720312552e-11 0.00024913593703381203 30.019992800000004 214.44777965000000 130.90400481000003 1639.8558849024062 0.0000000000000000 0.0000000000000000 0.0000000000000000 0.0000000000000000 0.75280049310323249 0.18890240719805876 0.015800571365164554 0.12569948846400336 3933.2696103206990 0.12570032299850686 0.0000000000000000 