# For a description of the Tecplot format see the Tecplot User's guide.
#
Variables=x,y,z,s_u,s_v,s_w,s_p,mono_f_vel_u,mono_f_vel_v,mono_f_vel_w,const,u_nu,v_nu,w_nu,p_nu,x_nu,y_nu,z_nu,const,u_ref,v_ref,w_ref,vol_ref,x_ref,y_ref,z_ref,const,I1,I2,I3,J,p1,p2,p3
Zone f=fepoint, n=246, e=987, et=brick, c=black
38.0652 186.273 153.575 38.065242356520919 186.27336913423539 153.57483533752017 -3.8789697562114789 -1.6856137430786329e-07 1.0350819285771235e-07 -1.3239759574682054e-07 -3.6328639427546325 -3.6498873455526049e-06 -2.6394581825739394e-07 -4.3733298937420617e-05 0.00024471338504982555 1.5874162075321413e-11 -4.2425513192409562e-11 -5.7555980547748475e-12 0.00025104291272174870 37.813509013000001 185.98771463999995 152.49007815000002 1568.1286420541724 0.0000000000000000 0.0000000000000000 0.0000000000000000 0.0000000000000000 0.75280299678191653 0.18890364133681295 0.015800723401672184 0.12570063704991602 3934.4111465168967 0.12570092881480610 0.0000000000000000 
38.007098392853209 201.89525262318750 167.23824867857610 38.007098392853209 201.89525262318745 167.23824867857607 -3.5979995207001179 -3.2345856587267851e-07 1.3600473637357374e-07 -1.1547703056741630e-06 -3.1578462831657328 -3.6466711479665745e-06 -2.7782784700614016e-07 -4.7242160281235617e-05 0.00021982760683872735 3.0055925005259089e-11 -5.1597754655801078e-11 1.4341036671214703e-10 0.00018503501241377238 37.755586870999998 201.59457435000007 166.06645798000000 1115.6658590402926 0.0000000000000000 0.0000000000000000 0.0000000000000000 0.0000000000000000 0.75282903672944301 0.18891673626047470 0.015802369670750344 0.12570322545541279 3934.9092884595252 0.12570747570229515 0.0000000000000000 
65.065334766284053 203.64136790471389 148.39925862401606 65.065334766284039 203.64136790471377 148.39925862401606 -4.6845295933026199 5.5622026732381784e-07 1.0017246116020097e-06 -5.4454529064507584e-07 0.0000000000000000 -5.4010946554773527e-06 -5.8901993410644778e-07 -4.2531627604658188e-05 0.00030244273757805705 -3.7694502557337103e-11 -4.6829298227334775e-11 1.0345812795928184e-11 0.0000000000000000 64.706898088665852 203.32599865957309 147.35284761981995 1170.9507322714735 0.0000000000000000 0.0000000000000000 0.0000000000000000 0.0000000000000000 0.75272512279273085 0.18886458780842930 0.015795827090587758 0.12568922405590857 3933.4521386830561 0.12568144484301638 0.0000000000000000 
58.305467803310364 219.11110134836929 155.04006443260801 58.305467803310407 219.11110134836935 155.04006443260809 -5.3839619768592764 4.6857883611492187e-07 1.1575759060467147e-06 -7.7090281901871324e-07 0.0000000000000000 -4.7694628568517592e-06 -2.9312629537536767e-07 -4.4109580146389771e-05 0.00030628719302604537 -2.4598730410049353e-12 -7.0408254568825824e-11 6.6214894067519772e-12 0.0000000000000000 57.976517148132935 218.79386635806736 153.94597399654558 871.12382118538517 0.0000000000000000 0.0000000000000000 0.0000000000000000 0.0000000000000000 0.75268984269375527 0.18884681612108192 0.015793589066095140 0.12568455574574153 3932.4048670715574 0.12567254687002463 0.0000000000000000 
106.68028408495377 203.25643140584970 168.67181990896071 106.68028408495371 203.25643140584970 168.67181990896066 -4.4583732482190257 3.7014941733107163e-08 2.3592297180851154e-07 -3.4174280381218352e-07 0.0000000000000000 -7.4452858273565967e-06 -2.7903741842139063e-07 -4.7610311517842792e-05 0.00041347369773912329 -6.4735811879170988e-11 5.2210991933229061e-11 -3.2048842443802489e-11 0.0000000000000000 106.16678147036436 202.95444406841523 167.49089761680582 1451.6544664497774 0.0000000000000000 0.0000000000000000 0.0000000000000000 0.0000000000000000 0.75279499821613038 0.18889963314219116 0.015800221239437071 0.12569622454047311 3933.6987120808581 0.12569893016331146 0.0000000000000000 
93.298108510780850 213.79602890773307 153.54503536303943 93.298108510780835 213.79602890773310 153.54503536303943 -5.3711974757948404 -3.0875929769863564e-07 5.8893842764848561e-07 -8.1539715054934512e-07 0.0000000000000000 -6.7050590805139976e-06 -2.8840318369582896e-07 -4.3725646103054412e-05 0.00037321936750740552 -2.5848405066609304e-11 -1.9682001156269386e-11 1.6346694175047530e-11 0.0000000000000000 92.835659459041835 213.48390549527133 152.46046799605259 1374.0431229362807 0.0000000000000000 0.0000000000000000 0.0000000000000000 0.0000000000000000 0.75267669108359125 0.18884027497844202 0.015792775833865454 0.12568135561033988 3932.1049483944503 0.12566931021566377 0.0000000000000000 
106.31179664490578 179.06722960826318 168.38074628103649 106.31179664490581 179.06722960826309 168.38074628103644 -4.4363857529834965 7.1315368709957734e-07 -3.1208897040585108e-07 -7.0346319736443895e-08 0.0000000000000000 -7.4249031698503387e-06 -2.5754225604912584e-07 -4.7535561757905409e-05 0.00044149975229414672 -9.5936116465943812e-12 -3.4175299083881496e-12 -2.0167447225839432e-11 0.0000000000000000 105.79969982540383 178.78850535694073 167.20167807608388 2450.7686744678872 0.0000000000000000 0.0000000000000000 0.0000000000000000 0.0000000000000000 0.75268199243018941 0.18884292643741415 0.015793107426792283 0.12568447090377008 3934.1193025516295 0.12567063580162732 0.0000000000000000 
76.119360504271143 193.52381911603541 158.13363202499426 76.119360504271128 193.52381911603550 158.13363202499428 -4.1680739477292059 1.6249785588762656e-07 7.1092977469617061e-07 -4.3005324743418220e-07 0.0000000000000000 -6.1496791787981780e-06 -5.2501485780865278e-07 -4.4556395080742303e-05 0.00034356818876058793 -2.8378315825544956e-11 -1.4767588716149559e-11 2.9642594502481079e-11 0.0000000000000000 75.717375094302042 193.21622810126507 157.03338180528999 1144.4826376458880 0.0000000000000000 0.0000000000000000 0.0000000000000000 0.0000000000000000 0.75289622232688924 0.18895059099084263 0.015806634428362772 0.12570937567858628 3932.9487525768332 0.12572442891747218 0.0000000000000000 
120.95493633350205 178.21293383339480 134.32944727098871 120.95493633350203 178.21293383339480 134.32944727098874 -5.3414882416595670 -9.0102816794410937e-08 -5.0438826149838929e-07 -5.1163182566815424e-07 -5.3451649752662842 -8.2348793581932256e-06 -2.5678310136556526e-07 -3.8790946956523971e-05 0.00043474590707739871 -8.0105638004449738e-12 -1.2561091321464749e-11 -2.2803498656315724e-11 0.00047536692411562909 120.38697531999998 177.93503117000000 133.36727978000002 3315.6872353797526 0.0000000000000000 0.0000000000000000 0.0000000000000000 0.0000000000000000 0.75277965704280858 0.18889195962094382 0.015799261729912591 0.12568515127055774 3931.8500681437890 0.12569511022510363 0.0000000000000000 
122.99125855352860 150.91455645033719 167.29218228850601 122.99125855352854 150.91455645033724 167.29218228850598 -5.4272446930096718 1.3345472255010292e-07 -5.3104471363808133e-08 1.0492349451041652e-07 0.0000000000000000 -8.3475172551472632e-06 -2.3252502839854472e-07 -4.7256010809071387e-05 0.00041898199633774345 3.0943967037887521e-12 -5.7342752325333901e-12 2.3330809612149849e-11 0.0000000000000000 122.41552888508200 150.66290700972726 166.12004804243418 2788.4559803272532 0.0000000000000000 0.0000000000000000 0.0000000000000000 0.0000000000000000 0.75260138970544732 0.18880246872812656 0.015788030603695859 0.12567262895405745 3932.7501266777554 0.12565042831589973 0.0000000000000000 
103.68546991775139 159.28504259505110 152.06484651260979 103.68546991775135 159.28504259505104 152.06484651260976 -4.7964957407987194 4.3385078997810811e-07 -5.5258303095877382e-07 -3.8245892212334177e-07 0.0000000000000000 -8.6871054757597605e-06 -6.0112991999529797e-07 -4.2587604479775145e-05 0.00043363111453609943 3.6856145078829398e-12 -1.1071084792172855e-11 -3.5618342740920146e-12 0.0000000000000000 103.16264437007636 159.03337825173907 151.00577047027593 2614.5647304445974 0.0000000000000000 0.0000000000000000 0.0000000000000000 0.0000000000000000 0.75253243037098705 0.18876786538587664 0.015783689669881255 0.12566554016698336 3934.6016295788932 0.12563316979794117 0.0000000000000000 
135.97034804091666 135.45495989522109 210.57884086669966 135.97034804091666 135.45495989522107 210.57884086669964 -3.9464425066516986 3.1997107350957222e-07 8.1786422361569550e-07 -8.4690943565037786e-07 -3.2964829031648284 -9.0654475563565862e-06 -2.1878719874690594e-07 -5.8372331373790498e-05 0.00028766138746619252 -3.1536756202770968e-11 -8.8681157784884373e-11 5.4117286960584140e-11 0.00025571963500731388 135.34510260000002 135.21817816000001 209.13097830999999 2383.2023779596761 0.0000000000000000 0.0000000000000000 0.0000000000000000 0.0000000000000000 0.75280521448609428 0.18890476933002234 0.015800866797855039 0.12569948846400320 3934.3318659485003 0.12570150022956819 0.0000000000000000 
116.91493918440143 101.35901373760139 191.73731256498780 116.91493918440143 101.35901373760136 191.73731256498783 -4.8824972552640880 -4.2381454837101638e-07 -4.5497409799796182e-07 -1.1848498723176146e-06 -5.3112660974106882 -8.0114094224148502e-06 -1.8848862877451913e-07 -5.3533693438578833e-05 0.00032057301663530267 2.6862862927985749e-11 3.3894492292001581e-11 7.3418455392727645e-11 0.00032083238476050916 116.36239092999996 101.15502254000000 190.40946719000002 2640.5657475930620 0.0000000000000000 0.0000000000000000 0.0000000000000000 0.0000000000000000 0.75283048226935823 0.18891748178095025 0.015802465709805282 0.12569948846400333 3931.4222219689159 0.12570785813494886 0.0000000000000000 
122.31278684031504 108.34492947828886 221.80629121707770 122.31278684031506 108.34492947828883 221.80629121707767 -3.3529486546305569 -3.7715533226885713e-07 -9.2973619220530211e-07 -1.4335194472249444e-07 -2.7527467555616698 -8.3099880163197200e-06 -1.9469649727239983e-07 -6.1255620154632354e-05 0.00021114592207782819 4.1280817620983865e-11 6.3280383716017059e-11 -1.5712160372514093e-11 0.00016030513147517676 121.73964556999999 108.13421982999998 220.28691180000004 1907.3938422647439 0.0000000000000000 0.0000000000000000 0.0000000000000000 0.0000000000000000 0.75279786102897606 0.18890104851738324 0.015800396164016375 0.12569948846400320 3935.5568016033712 0.12569962682890526 0.0000000000000000 
105.30341051272586 122.16314099526164 208.15761290756552 105.30341051272582 122.16314099526157 208.15761290756561 -3.2413679718118078 4.7895941366135999e-08 -5.5807555283253753e-08 -9.7729201464744804e-07 0.0000000000000000 -7.3691249115048763e-06 -2.0697573922812132e-07 -5.7750542871326527e-05 0.00025048037297883703 -3.5354513712491800e-12 -2.0251715947376453e-11 9.0709471984322906e-11 0.0000000000000000 104.79516072874441 121.93914218401807 206.72517314201556 2433.5838456336692 0.0000000000000000 0.0000000000000000 0.0000000000000000 0.0000000000000000 0.75279046362635416 0.18889739184833154 0.015799944359949584 0.12569948846400314 3935.7652649488286 0.12569782887143696 0.0000000000000000 
38.014673546382639 163.39256462168237 155.77615022152315 38.014673546382632 163.39256462168228 155.77615022152310 -2.8459545699127906 1.3650970474141043e-07 1.7675967462225638e-07 3.5322321251272084e-07 -3.3897299237441705 -3.6470901574325865e-06 -2.4361331218969440e-07 -4.4298612184856541e-05 0.00018986285303290292 -1.7078580390835432e-11 -1.9273135418918038e-12 2.3404472806609304e-11 0.00021960537071097775 37.763133124999982 163.12891490999996 154.67737105000003 1609.7391759139125 0.0000000000000000 0.0000000000000000 0.0000000000000000 0.0000000000000000 0.75279613808309009 0.18890018141095363 0.015800287055929028 0.12572485844450226 3935.4495413290942 0.12569918765753943 0.0000000000000000 
38.052447634116632 176.57855631018361 167.40098369164443 38.052447634116625 176.57855631018359 167.40098369164440 -2.6818439029073953 1.3140369846508244e-07 1.1582136793763319e-07 -5.8637139286609680e-07 -3.2726792715394168 -3.6491796129856091e-06 -2.5533073774730575e-07 -4.7283951785492828e-05 0.00014420477408105616 -6.0153683379659615e-12 3.9107064551008422e-13 5.4516769714271770e-11 0.00014946606476812880 37.800763103000001 176.30222544999998 166.22815640000002 1278.4532315353756 0.0000000000000000 0.0000000000000000 0.0000000000000000 0.0000000000000000 0.75262336367708105 0.18881351013367495 0.015789417557646547 0.12569948846400333 3937.0727486509254 0.12565597684230717 0.0000000000000000 
29.537636133995811 163.90568761908497 176.40649811564987 29.537636133995814 163.90568761908500 176.40649811564984 -2.2318025711466518 1.5912402385140011e-07 1.0404562169584206e-07 -8.6630189629057451e-07 -2.1188060687225847 -3.1781880920344585e-06 -2.4406929163833802e-07 -4.9596631687298665e-05 0.00011404208323206145 5.3872209301659888e-12 1.4579012972043407e-11 1.2930365805006484e-11 0.00010691254706883260 29.318435967000010 163.64154443000001 175.17630729999999 1176.2421003033126 0.0000000000000000 0.0000000000000000 0.0000000000000000 0.0000000000000000 0.75270049648819526 0.18885223383101798 0.015794277746992512 0.12569948846400320 3937.8056585462468 0.12567530060555315 0.0000000000000000 
45.610171546913747 139.62367392632353 176.81226529262531 45.610171546913755 139.62367392632356 176.81226529262528 -2.4068252715979472 -7.0369627544661418e-07 -3.2243981676833706e-07 -1.0947150383847884e-06 0.0000000000000000 -4.0672304236766266e-06 -2.2249164607912597e-07 -4.9700835574373332e-05 0.00014280813108520155 3.8200703908550537e-11 4.0747245396905777e-11 9.3854205394278982e-11 0.0000000000000000 45.329653981089926 139.38288308181924 175.57948981227980 1838.0408446142237 0.0000000000000000 0.0000000000000000 0.0000000000000000 0.0000000000000000 0.75306197164625843 0.18903357905406357 0.015817022060920730 0.12573924054497002 3935.0626055581934 0.12576573168042901 0.0000000000000000 
58.987045332126186 137.32310840919052 224.15969559408094 58.987045332126179 137.32310840919055 224.15969559408089 -1.4042925679868583 1.0851660887586981e-07 3.5571135285868831e-07 -3.8129333031310663e-07 -1.5123248773450719 -4.8071638979740872e-06 -2.2044729544590247e-07 -6.1859991082380272e-05 8.7311708015147736e-05 -7.2508851765028043e-12 -1.3083623586749347e-11 3.2991434807322120e-11 2.9994089342814964e-05 58.655494429999983 137.08453005000001 222.62532541000004 1283.0721019573000 0.0000000000000000 0.0000000000000000 0.0000000000000000 0.0000000000000000 0.75283009840138859 0.18891723791256923 0.015802428699287750 0.12569948846400314 3938.1120845843598 0.12570770385758404 0.0000000000000000 
37.589829449277502 150.51044637242256 220.16628557302676 37.589829449277495 150.51044637242259 220.16628557302676 -1.4186445948996536 2.4630848273659725e-07 1.6904914486961642e-07 -1.7630899217488961e-07 -1.5961320193182169 -3.6235901698655759e-06 -2.3216590908092799e-07 -6.0834455100022819e-05 7.7433212695332960e-05 8.0474515387396886e-12 -2.3144281213912748e-11 3.0614875068230582e-11 9.4982474570397797e-05 37.339909825999996 150.25918557000000 218.65735269999999 1388.6032526015726 0.0000000000000000 0.0000000000000000 0.0000000000000000 0.0000000000000000 0.75282755465449147 0.18891597316779876 0.015802271509915210 0.12569948846400325 3937.9584281162961 0.12570708296268454 0.0000000000000000 
59.443477988915546 159.03053833135618 204.94691408552012 59.443477988915554 159.03053833135618 204.94691408552009 -1.6226792745407372 3.3912405003040637e-07 -8.0456746801445047e-08 -7.2698971514792051e-08 -1.6510407348072580 -4.8324111875386110e-06 -2.3973710092120796e-07 -5.6926012672986470e-05 0.00013179438541353170 -6.9007507720024707e-11 1.4165997168352673e-11 1.0272702910818673e-11 8.6671185141007083e-05 59.110185776999977 158.77108363999997 203.53492589999999 1913.3477276736232 0.0000000000000000 0.0000000000000000 0.0000000000000000 0.0000000000000000 0.75259112977456222 0.18879734040379487 0.015787389727340014 0.12569948846400331 3939.4218960407811 0.12564791261273631 0.0000000000000000 
45.614443811098354 131.94078049857927 199.25311618551669 45.614443811098369 131.94078049857933 199.25311618551675 -1.5878448032018990 -3.1931635242594341e-07 -8.4561998221189121e-08 3.0687595156147314e-07 0.0000000000000000 -4.0674667355633622e-06 -2.1566440408515855e-07 -5.5463805039568374e-05 0.00010050281672931543 -1.4097933055373474e-11 8.5441213312243343e-12 -4.4112607877515790e-11 0.0000000000000000 45.333909946406948 131.70737839773392 197.87739647919071 1878.7089811415260 0.0000000000000000 0.0000000000000000 0.0000000000000000 0.0000000000000000 0.75273725547309900 0.18887069828484623 0.015796596465776469 0.12570279477885712 3939.0686585316876 0.12568452448562484 0.0000000000000000 
73.608693102554156 182.72564673109162 193.51414664180157 73.608693102554128 182.72564673109170 193.51414664180163 -2.2081058101808497 3.8210691063058610e-07 -2.7258002327190647e-07 8.2589929907968187e-08 -1.4970835055525338 -5.6159512814568657e-06 -2.6079320436522835e-07 -5.3989997008840891e-05 0.00024183003167270440 -1.8091062292068362e-10 4.7604835039945038e-11 -2.5950258919720990e-11 0.00020547889588566330 73.221359999000001 182.44340413000006 192.17498315000009 1916.8989385598338 0.0000000000000000 0.0000000000000000 0.0000000000000000 0.0000000000000000 0.75301630208486980 0.18901058511763036 0.015814127790163061 0.12573335833741281 3935.5018500658866 0.12575424382342962 0.0000000000000000 
82.666026252595202 141.83197480765642 210.95076407131512 82.666026252595202 141.83197480765645 210.95076407131509 -2.3864450702856699 3.2808748485975649e-07 2.7464329285374548e-07 -1.6076889904416184e-07 -1.7454905122046183 -6.1169520375603517e-06 -2.2445399988641982e-07 -5.8467843892129334e-05 0.00027077981506167502 -1.6145619789775549e-11 -9.5647149013025525e-11 6.1372639678049262e-11 0.00039137188456095725 82.244139041999972 141.58906020999996 209.50053243000002 2596.9063225776295 0.0000000000000000 0.0000000000000000 0.0000000000000000 0.0000000000000000 0.75281059594430699 0.18890746373803599 0.015801204060499952 0.12570852919181238 3937.3077464843668 0.12570284801592366 0.0000000000000000 
97.137807328043721 151.06482739747079 178.63957991246227 97.137807328043735 151.06482739747074 178.63957991246215 -3.6684399973030479 1.4324290695877190e-06 -1.6358690956004033e-07 -5.1078388288775228e-07 0.0000000000000000 -8.8172850155604951e-06 4.3692092223198918e-07 -4.9762139759377034e-05 0.00040538312052228735 -5.2285836734028018e-11 1.6919508976069751e-11 -1.8331190106674835e-11 0.0000000000000000 96.634805924592328 150.82018211309926 177.41298922508184 2674.5721001240636 0.0000000000000000 0.0000000000000000 0.0000000000000000 0.0000000000000000 0.75287883175691650 0.18894154204495181 0.015805458864749395 0.12570676901064234 3934.0967208758966 0.12571973364514302 0.0000000000000000 
110.74217622231085 161.07661727990450 196.02126163182629 110.74217622231082 161.07661727990453 196.02126163182615 -4.3729090077306685 1.0074132834091431e-06 1.4167286869677626e-07 -4.6057439947528494e-08 0.0000000000000000 -7.6699668703494855e-06 -2.4155529940172999e-07 -5.4633841892026698e-05 0.00039518888002450491 1.4725303304405347e-12 -3.0850611357761353e-11 1.6298814562876905e-11 0.0000000000000000 110.21317731831955 160.81519484644704 194.66612826377516 2907.4611518241991 0.0000000000000000 0.0000000000000000 0.0000000000000000 0.0000000000000000 0.75276515851155656 0.18888461477940707 0.015798331635143825 0.12568853967700153 3933.1990078801459 0.12569141284938648 0.0000000000000000 
69.206222343074174 138.01148743979434 192.14592188005705 69.206222343074174 138.01148743979425 192.14592188005705 -1.6895779486421898 4.0809376764299494e-07 3.2523146037347694e-08 9.3415353879100014e-07 0.0000000000000000 -5.3724313378578081e-06 -2.2105900085445107e-07 -5.3638627196705979e-05 0.00023891001662394544 -2.1924217128529736e-10 9.2312373887380991e-11 -7.4688243513179831e-11 0.0000000000000000 68.835684850694804 137.77224705707783 190.81547373645992 2302.4579037184249 0.0000000000000000 0.0000000000000000 0.0000000000000000 0.0000000000000000 0.75337347590485138 0.18918992371357157 0.015836639431947130 0.12576967157881150 3934.5651002980303 0.12584371392168145 0.0000000000000000 
84.302125973958638 175.18450119170933 175.71898017048807 84.302125973958638 175.18450119170936 175.71898017048807 -3.0098602212343009 7.9087636302348149e-07 5.7069987045153309e-07 -4.2578205458910446e-07 0.0000000000000000 -8.3003683200180533e-06 3.2149005882219524e-07 -4.8718006164254047e-05 0.00035563816544230794 -1.4270196980321523e-10 -4.9967630385853607e-11 8.8851772301946829e-12 0.0000000000000000 83.849638243891135 174.91172786385235 174.51222656391082 1667.9065348682720 0.0000000000000000 0.0000000000000000 0.0000000000000000 0.0000000000000000 0.75304063837844393 0.18902290309860642 0.015815686410051974 0.12573109358207055 3934.1551862325146 0.12576042235923127 0.0000000000000000 
101.82801260474034 227.02847092287726 182.68586607187751 101.82801260474035 227.02847092287723 182.68586607187751 -4.6086377028545602 -5.6917326745179721e-07 4.5450230852669764e-07 9.9972497475614234e-08 -4.8495418769275487 -7.1768854277287647e-06 -3.0016190899484480e-07 -5.1209217851233557e-05 0.00037514270188176491 5.2180024427391662e-11 -4.3198256803619967e-11 3.4320395369712426e-11 0.00034693361528705932 101.33302161000000 226.70362169000003 181.41567680000000 527.87335979314730 0.0000000000000000 0.0000000000000000 0.0000000000000000 0.0000000000000000 0.75280412247641071 0.18890422397314272 0.015800798720059041 0.12569948846400320 3932.6989112856381 0.12570122709824302 0.0000000000000000 
109.77311155150028 213.15328273467875 193.39592925810877 109.77311155150028 213.15328273467870 193.39592925810874 -4.1832721779386901 1.6650544554143547e-07 2.6991851989965343e-08 -2.8844166926014793e-08 -3.9736469729577801 -7.6163636583137509e-06 -2.8783203379068034e-07 -5.3959637935141462e-05 0.00040361007275191825 -1.1527181975356099e-10 9.5675051473339777e-11 -4.1505866249024356e-12 0.00044458300251203146 109.24780967000000 212.84177746000000 192.05751878999999 1255.4436111582911 0.0000000000000000 0.0000000000000000 0.0000000000000000 0.0000000000000000 0.75277791328781729 0.18889108776073418 0.015799152738354558 0.12569948846400317 3933.9274953240433 0.12569468319502528 0.0000000000000000 
92.137311516930794 213.32773649312554 179.21355075276799 92.137311516930808 213.32773649312551 179.21355075276793 -4.4141182419554470 6.0022240902470238e-08 8.0513528186280227e-07 -9.1403221719732832e-07 0.0000000000000000 -6.6408503081594192e-06 -2.8798705187238477e-07 -5.0317502677754706e-05 0.00034896037249171048 1.2199818948690744e-13 -1.1196209270840272e-10 6.6595279887094161e-11 0.0000000000000000 91.679290954562077 213.01606344388193 177.96547951144200 663.90724330950775 0.0000000000000000 0.0000000000000000 0.0000000000000000 0.0000000000000000 0.75278662336647162 0.18889536960410636 0.015799678724360153 0.12569914100957466 3933.4646150285416 0.12569677296317175 0.0000000000000000 
64.362754194212059 211.97085686167651 167.83962593242623 64.362754194212073 211.97085686167642 167.83962593242629 -4.2885466507226999 8.3970762595657517e-07 1.0954937731533281e-06 -6.9068498906625151e-07 0.0000000000000000 -5.7048497471109589e-06 -5.0403289460403895e-07 -4.6975993512221226e-05 0.00027570632501495768 -6.8728732679058837e-11 -1.0594871960893149e-10 1.9150964840627888e-11 0.0000000000000000 64.005185165032174 211.65254642520509 166.67194214610197 754.86350931875324 0.0000000000000000 0.0000000000000000 0.0000000000000000 0.0000000000000000 0.75285987824285927 0.18893210317970699 0.015804283740099387 0.12570431746621696 3932.9381362292524 0.12571508347512819 0.0000000000000000 
61.237430137941146 184.74213858920675 163.95158740929534 61.237430137941146 184.74213858920669 163.95158740929531 -3.2418424889857489 -4.5126717645886104e-08 5.5775751682752733e-08 -3.4680887880230206e-07 0.0000000000000000 -4.9316425389800411e-06 -2.6258510898991005e-07 -4.6398122376334339e-05 0.00024789366826973410 -7.0449662957673199e-11 1.4754859513578976e-11 3.9299144576195209e-11 0.0000000000000000 60.897293923099205 184.45795670032331 162.80073215801758 1456.3555990979894 0.0000000000000000 0.0000000000000000 0.0000000000000000 0.0000000000000000 0.75301544455760772 0.18901029324129140 0.015814108563750415 0.12573465801906897 3933.4189456749841 0.12575415737559228 0.0000000000000000 
88.730594611090424 196.33858096439650 139.91957338664457 88.730594611090467 196.33858096439658 139.91957338664454 -5.0191040747579896 1.7283881391571209e-07 7.4566702220542415e-07 -3.2002575269155283e-07 0.0000000000000000 -6.4524098742357872e-06 -2.7289003695640801e-07 -4.0226530917453207e-05 0.00038788547940844955 -4.4975060523071623e-11 1.4985862125597105e-11 9.7762624304497122e-12 0.0000000000000000 88.285570817050015 196.04324661832075 138.92179778727578 2284.4992455537940 0.0000000000000000 0.0000000000000000 0.0000000000000000 0.0000000000000000 0.75274417288803386 0.18887416098703819 0.015797029783902947 0.12568390073415359 3932.5556525749862 0.12568623303339874 0.0000000000000000 
82.246710009048741 174.74415404116630 154.87786181899997 82.246710009048712 174.74415404116633 154.87786181899995 -3.7217536664064563 3.8714453435529680e-07 2.0258501890565363e-07 -1.9327072738117242e-07 0.0000000000000000 -6.7623633441726768e-06 -1.3965131469092506e-08 -4.3588966439169337e-05 0.00038728385292755008 -4.6380947445201908e-11 1.3903401928169768e-11 2.8409117496532203e-11 0.0000000000000000 81.814121362732124 174.46733636348887 153.79871785113039 1849.3455604645501 0.0000000000000000 0.0000000000000000 0.0000000000000000 0.0000000000000000 0.75293423744922916 0.18896971198270499 0.015809038801732053 0.12572350650530342 3933.8706197059842 0.12573399442985511 0.0000000000000000 
77.024951771108618 237.80568863050550 172.68830828824326 77.024951771108604 237.80568863050547 172.68830828824323 -5.7415190554329900 2.1427282779369048e-07 -5.4742390897234386e-08 -6.1094178755635391e-07 -5.5939497748942921 -5.8049195013620825e-06 -3.0973882925167112e-07 -4.8641774182456306e-05 0.00036936915952057555 -2.3839946727771491e-11 3.0655550153073174e-12 -1.7463342386134593e-11 0.00037753037443696667 76.624585496999998 237.47047479999995 171.48180167999999 450.61312636181810 0.0000000000000000 0.0000000000000000 0.0000000000000000 0.0000000000000000 0.75284376053407809 0.18892421930804118 0.015803320304329991 0.12569948846400320 3930.3564530580670 0.12571126003808589 0.0000000000000000 
66.979755898217064 237.64375101288442 156.97939176599866 66.979755898217050 237.64375101288442 156.97939176599863 -6.4205041447697075 -1.6398539133486813e-08 -2.9790877265412982e-08 -6.1036163212382273e-07 -6.7090781979638150 -5.2492757323108352e-06 -3.0959493338422739e-07 -4.4607613154890036e-05 0.00034416656913922460 -6.3100619152078203e-12 1.2802975470951938e-12 -1.7350157468845228e-11 0.00034519811453896139 66.617712469000011 237.30869291999991 155.87294816000005 715.16986369778181 0.0000000000000000 0.0000000000000000 0.0000000000000000 0.0000000000000000 0.75274889826002911 0.18887640793498167 0.015797296073371239 0.12568664507260091 3929.5022817843760 0.12568729097089640 0.0000000000000000 
87.672838382524972 237.25583156544778 148.05494707174225 87.672838382525001 237.25583156544778 148.05494707174222 -6.3275864928384680 -2.7153210697701112e-07 -2.8995499913970979e-08 -3.2605273472512829e-07 -7.0322708488683583 -6.3939007435842568e-06 -3.0925021288213655e-07 -4.2315752523502947e-05 0.00035425347349357016 -1.1355826600920514e-11 -7.1386365297377484e-12 -1.8200691183980058e-11 0.00035029963034324645 87.231849972999981 236.92114653999997 147.00535059000001 1226.5804134212974 0.0000000000000000 0.0000000000000000 0.0000000000000000 0.0000000000000000 0.75279338738939550 0.18889882277970124 0.015800119335124849 0.12568837208627842 3929.2164166193593 0.12569852522538530 0.0000000000000000 
87.463597136235336 225.10411199582319 163.26490147290542 87.463597136235364 225.10411199582325 163.26490147290542 -5.5496740117738357 -3.2524298183371381e-07 4.5575954128848966e-07 -4.0766030825658236e-07 0.0000000000000000 -6.3823267003049197e-06 -2.9845186830246279e-07 -4.6221776556831788e-05 0.00036999357821422481 1.6755903125423253e-12 -3.2821200053985074e-11 -2.2508285625067228e-11 0.0000000000000000 87.023406990868523 224.78111344523825 162.11842028882040 681.06850806740897 0.0000000000000000 0.0000000000000000 0.0000000000000000 0.0000000000000000 0.75273910960342538 0.18887146032051452 0.015796670908884761 0.12568805046522394 3931.6629050321640 0.12568480683334457 0.0000000000000000 
87.260587006056497 196.76781458763085 187.07735964510408 87.260587006056525 196.76781458763082 187.07735964510405 -3.3662318206841437 4.8122419758120727e-07 -1.8325784928612081e-07 -2.6395779404479394e-07 0.0000000000000000 -6.3710973200459264e-06 -2.7327146800981700e-07 -5.2336984497525225e-05 0.00034314915879728636 -1.6608998977539309e-10 1.6740505892096756e-10 1.3245349889157869e-11 0.0000000000000000 86.821171352877627 196.47206744171046 185.77919734079927 1095.9217422697654 0.0000000000000000 0.0000000000000000 0.0000000000000000 0.0000000000000000 0.75286073600478920 0.18893255927630348 0.015804344200488044 0.12571154645729460 3934.9423983380411 0.12571532705528304 0.0000000000000000 
30.241879685775839 214.76083092575442 131.85038109066463 30.241879685775839 214.76083092575439 131.85038109066463 -4.3654300280075278 4.3617405191286105e-08 3.3047469542780607e-07 3.3162087610259135e-08 -4.7067747017631030 -3.2171428873688345e-06 -2.8926054809752516e-07 -3.8154305189219702e-05 0.00024219084995879094 -7.3530090508247971e-12 -3.0832364698186539e-11 -9.5123435633009466e-12 0.00025657940594595838 30.019992800000004 214.44777965000000 130.90400481000003 1639.8558849024062 0.0000000000000000 0.0000000000000000 0.0000000000000000 0.0000000000000000 0.75279837377047254 0.18890134406638698 0.015800438038926237 0.12569948846400336 3933.3107572040235 0.12569979281973098 0.0000000000000000 