# vtk DataFile Version 3.0
vtk output
ASCII
DATASET POLYDATA
POINTS 12409 float
8.4711 145.25 62.87
8.4867 145.16 63.084
8.6071 144.95 64.024
8.985 144.59 65.766
9.0022 144.58 65.856
9.0134 144.57 65.959
9.044 144.55 66.235
9.0732 144.56 66.435
9.2803 144.54 67.378
9.3148 144.53 67.645
9.3873 144.52 68.267
9.4238 144.46 68.74
9.5294 144.35 69.477
9.6084 144.28 69.793
9.8544 144.04 70.807
9.8775 144.03 70.935
10.019 143.93 71.683
10.112 143.85 72.06
10.154 143.8 72.275
10.179 143.77 72.344
10.405 143.61 72.919
10.437 143.58 73.033
10.538 143.51 73.394
10.656 143.42 73.868
10.688 143.37 74.04
10.719 143.33 74.207
10.98 143.09 75.362
11.144 142.94 76.146
11.207 142.94 76.313
11.234 142.92 76.39
11.297 142.89 76.654
11.397 142.86 77.072
11.462 142.82 77.467
11.652 142.77 78.201
11.75 142.72 78.607
11.898 142.64 79.245
11.934 142.62 79.41
11.929 142.6 79.678
11.94 142.59 80.096
11.975 142.56 80.494
11.995 142.52 80.852
12.05 142.45 81.583
12.075 142.39 82.097
12.271 142.19 83.56
12.28 142.16 83.761
12.277 142.15 83.823
12.275 142.14 83.856
12.261 142.1 84.008
12.248 142.06 84.114
12.234 142.02 84.22
12.354 141.9 85.406
12.384 141.84 85.857
12.456 141.67 86.824
12.469 141.64 86.971
12.475 141.61 87.256
12.476 141.6 87.43
12.571 141.54 87.963
12.596 141.48 88.274
12.613 141.44 88.495
12.622 141.43 88.594
12.622 141.43 88.595
12.69 141.26 89.502
12.693 141.26 89.53
12.818 141.19 90.195
12.845 141.01 91.421
12.819 140.85 91.99
12.785 140.73 92.438
12.737 140.63 93.01
12.689 140.66 94.103
12.698 140.76 94.618
12.697 141 95.506
12.695 141.06 95.669
12.649 141.05 95.882
12.609 141.01 96.231
12.586 140.96 96.317
12.526 140.89 96.639
12.465 140.95 97.538
12.297 140.95 99.138
12.274 140.96 99.362
12.261 140.96 99.579
12.191 140.93 100.29
12.138 140.88 100.8
12.133 140.83 101.04
12.099 140.78 101.59
12.095 140.78 101.63
12.059 140.75 101.84
12.046 140.74 101.91
11.966 140.64 102.53
11.93 140.62 102.91
11.902 140.62 103.35
11.86 140.65 104.01
11.853 140.65 104.09
11.778 140.69 104.66
11.777 140.69 104.68
11.777 140.69 104.68
11.768 140.69 104.87
11.783 140.69 105.11
11.835 140.72 105.52
11.856 140.73 105.64
11.968 140.68 106.06
11.982 140.66 106.2
12.14 140.66 106.96
12.186 140.67 107.15
12.272 140.69 107.52
12.463 140.72 108.49
12.484 140.73 108.59
12.519 140.73 108.79
12.568 140.74 109.04
12.719 140.84 109.52
12.766 140.87 109.69
12.972 140.87 109.99
13.373 140.9 110.53
13.605 140.88 110.97
14.258 140.84 112.25
14.632 140.83 112.95
14.71 140.82 113.15
15.081 140.81 114.1
15.086 140.81 114.12
15.518 140.87 115.14
15.696 140.81 115.49
15.742 140.77 115.59
15.914 140.66 115.98
15.961 140.63 116.08
16.043 140.61 116.23
16.096 140.59 116.33
16.096 140.59 116.33
16.195 140.55 116.54
16.659 140.52 117.47
16.892 140.5 117.94
17.196 140.52 118.5
17.465 140.56 119.02
17.65 140.55 119.36
17.667 140.55 119.39
17.697 140.56 119.45
18.008 140.62 120.13
18.534 140.68 121.04
18.548 140.68 121.07
18.843 140.61 121.64
18.99 140.6 121.99
19.301 140.61 122.53
19.317 140.61 122.56
19.768 140.54 123.04
20.812 140.41 124.09
20.987 140.39 124.3
20.991 140.39 124.3
21.068 140.39 124.38
21.172 140.39 124.49
21.256 140.38 124.59
21.336 140.4 124.71
21.382 140.4 124.77
21.736 140.4 125.16
21.823 140.4 125.28
22.216 140.4 125.78
22.502 140.41 126.13
22.546 140.41 126.18
22.627 140.41 126.29
22.679 140.41 126.35
22.679 140.41 126.35
22.729 140.41 126.42
22.729 140.41 126.42
22.975 140.42 126.9
22.981 140.41 126.91
23.06 140.37 127.09
23.081 140.36 127.13
23.081 140.36 127.13
23.16 140.32 127.28
23.324 140.24 127.6
23.343 140.23 127.64
23.886 140.03 128.53
24.047 139.98 128.8
24.047 139.98 128.8
24.3705 140.161 129.995
24.4367 140.131 130.135
24.4809 140.111 130.216
24.515 140.101 130.276
24.5241 140.101 130.296
24.5241 140.101 130.296
24.5391 140.101 130.327
24.6596 140.081 130.498
24.8292 140.071 130.739
24.9959 140.051 130.991
25.1264 140.031 131.222
25.1635 140.031 131.283
25.1766 140.021 131.333
25.2468 139.991 131.605
25.4034 139.961 132.038
25.4275 139.951 132.098
25.4988 139.911 132.279
25.5841 139.881 132.46
25.6062 139.871 132.521
25.6193 139.871 132.561
25.6745 139.861 132.672
25.7919 139.841 132.893
25.804 139.831 132.923
25.9465 139.811 133.286
26.1382 139.791 133.557
26.1433 139.791 133.577
26.35 139.761 133.92
26.4615 139.751 134.04
26.4625 139.751 134.04
26.6422 139.741 134.312
26.6753 139.741 134.342
26.7405 139.741 134.443
26.8871 139.711 134.705
26.8931 139.711 134.715
27.0136 139.701 134.886
27.1792 139.701 135.188
27.2866 139.701 135.419
27.3318 139.711 135.53
27.3388 139.711 135.54
27.4573 139.691 135.852
27.5215 139.691 135.993
27.5366 139.691 136.023
27.64 139.691 136.224
27.7323 139.691 136.385
27.8457 139.701 136.576
27.8488 139.701 136.587
28.0003 139.701 137.13
28.0224 139.701 137.16
28.0867 139.721 137.623
28.1208 139.731 137.744
28.1419 139.731 137.824
28.169 139.741 137.955
28.2011 139.751 138.046
28.3577 139.781 138.398
28.3738 139.771 138.438
28.4681 139.711 138.77
28.4651 139.641 139.022
28.5083 139.631 139.153
28.6127 139.581 139.404
28.6839 139.561 139.525
28.7883 139.541 139.676
28.7924 139.541 139.696
28.8556 139.511 139.888
28.9088 139.471 140.059
29.0875 139.381 140.592
29.1306 139.361 140.723
29.2531 139.3 141.075
29.5231 139.22 141.83
29.5894 139.21 141.951
29.6567 139.2 142.071
29.8203 139.21 142.343
29.8464 139.21 142.394
29.9559 139.18 142.514
30.1007 139.12 142.705
30.2194 139.08 142.876
30.3945 138.989 143.158
30.5353 138.939 143.339
30.6602 138.878 143.671
30.7447 138.848 143.822
30.7547 138.848 143.842
31.0143 138.807 144.214
31.1551 138.777 144.435
31.2959 138.766 144.626
31.3915 138.756 144.777
31.4096 138.756 144.797
31.4186 138.756 144.817
31.4367 138.746 144.848
31.5314 138.726 145.049
31.8144 138.594 145.773
31.9321 138.554 146.085
31.9522 138.544 146.125
32.0967 138.494 146.407
32.2664 138.454 146.699
32.2825 138.454 146.719
32.3246 138.454 146.779
32.3648 138.454 146.83
32.5164 138.454 147.162
32.5776 138.444 147.323
32.6447 138.414 147.544
32.9278 138.304 148.068
32.9499 138.294 148.108
33.1295 138.234 148.47
33.2269 138.194 148.681
33.3634 138.154 148.963
33.4146 138.144 149.044
33.5401 138.124 149.245
33.6626 138.094 149.477
33.7178 138.084 149.587
33.7228 138.074 149.597
33.7659 138.064 149.698
33.7699 138.064 149.718
33.795 138.064 149.778
33.9013 138.054 150.06
33.9294 138.044 150.141
33.9344 138.044 150.151
33.9615 138.044 150.221
33.9776 138.044 150.252
34.0539 138.044 150.392
34.0539 138.044 150.392
34.1703 138.034 150.604
34.2447 138.034 150.725
34.3953 138.064 150.956
34.5549 138.104 151.308
34.8047 138.184 151.973
34.883 138.204 152.144
35.1069 138.244 152.586
35.4583 138.334 153.23
35.5798 138.324 153.432
35.9726 138.364 153.985
36.0811 138.374 154.106
36.2348 138.393 154.287
36.3524 138.403 154.418
36.4489 138.413 154.528
36.5614 138.443 154.659
36.5624 138.443 154.659
36.7161 138.483 154.87
36.7844 138.503 154.991
36.7854 138.503 154.991
36.8095 138.503 155.031
36.8105 138.503 155.031
37.1364 138.553 155.595
37.1685 138.563 155.666
37.2867 138.624 156.018
37.376 138.644 156.209
37.5794 138.754 156.572
37.6496 138.835 156.683
37.7417 138.965 156.874
38.0842 139.396 157.438
38.1253 139.447 157.488
38.1984 139.547 157.579
38.3236 139.727 157.75
38.3446 139.768 157.78
38.3446 139.768 157.78
38.3716 139.808 157.821
38.3716 139.808 157.821
38.4737 140.028 158.002
38.5207 140.159 158.103
38.5217 140.169 158.103
38.5517 140.269 158.173
38.5528 140.269 158.173
38.652 140.589 158.414
38.6741 140.669 158.465
38.6751 140.669 158.465
38.6891 140.719 158.505
38.6891 140.719 158.505
38.7423 140.879 158.616
38.7433 140.879 158.626
38.8576 141.179 158.827
38.8887 141.299 158.897
38.9168 141.37 158.947
39.0342 141.56 159.098
39.0673 141.61 159.128
39.0673 141.61 159.138
39.0764 141.62 159.138
39.1305 141.72 159.209
39.1386 141.73 159.219
39.1496 141.75 159.219
39.4085 142.26 159.44
39.4396 142.34 159.47
39.5923 142.77 159.611
39.6275 142.86 159.651
39.6737 143 159.701
39.7531 143.24 159.842
39.7722 143.27 159.862
39.9178 143.65 160.104
39.9319 143.68 160.124
39.9389 143.69 160.134
39.9761 143.75 160.174
39.9761 143.75 160.184
40.1788 144.151 160.476
40.3575 144.421 160.677
40.4739 144.561 160.798
40.7651 144.891 161.12
40.8775 145.001 161.221
40.9147 145.041 161.251
40.986 145.112 161.301
41.2792 145.372 161.523
41.3545 145.432 161.573
41.3575 145.432 161.573
41.4047 145.472 161.633
41.4659 145.522 161.694
41.6004 145.642 161.824
41.7641 145.782 161.995
41.8916 145.942 162.187
41.9116 145.962 162.207
42.0582 146.122 162.338
42.2279 146.282 162.509
42.2701 146.322 162.549
42.2711 146.322 162.549
42.4578 146.492 162.72
42.506 146.522 162.76
42.6837 146.672 162.861
42.9479 146.872 162.951
43.4289 147.242 163.092
43.4329 147.242 163.102
43.4902 147.282 163.112
43.9551 147.552 163.293
43.9742 147.572 163.303
44.0224 147.622 163.333
44.0345 147.632 163.343
44.2393 147.792 163.474
44.5737 148.112 163.665
44.7514 148.292 163.755
44.7534 148.292 163.755
44.9121 148.382 163.806
44.9754 148.422 163.836
44.9764 148.422 163.836
45.2505 148.572 163.916
45.4373 148.712 163.936
45.5107 148.762 163.946
45.5117 148.762 163.946
45.5388 148.782 163.956
45.5388 148.782 163.956
45.5609 148.802 163.956
45.5609 148.802 163.956
45.6673 148.882 163.976
45.8571 149.052 163.996
45.9013 149.092 164.006
45.9546 149.132 164.016
45.9947 149.172 164.026
46.1002 149.282 164.046
46.2408 149.442 164.087
46.3553 149.542 164.117
46.4587 149.652 164.137
46.5028 149.692 164.137
46.544 149.732 164.147
46.5801 149.762 164.147
46.6986 149.892 164.147
46.7598 149.962 164.157
46.7598 149.962 164.157
46.8401 150.042 164.167
46.9254 150.132 164.167
47.082 150.323 164.167
47.2737 150.533 164.137
47.3229 150.593 164.127
47.4956 150.793 164.107
47.5186 150.813 164.107
47.5799 150.873 164.097
47.6843 151.003 164.087
47.7124 151.033 164.087
48.0275 151.454 164.087
48.0366 151.464 164.077
48.0366 151.464 164.077
48.1148 151.554 164.087
48.3607 151.854 164.107
48.428 151.945 164.117
48.699 152.325 164.117
48.8123 152.515 164.157
48.9989 152.856 164.208
[...]
CELL_DATA 12408
scalars Radius float
LOOKUP_TABLE default
9.4449 9.4081 9.5032 9.5143 9.5195 9.5365 9.5369 9.5091 9.4949 9.4782 9.4699 9.445 9.4072 9.3353 9.3207 9.2613 9.2256 9.2043 9.1905 9.0676 9.0358 8.9426 8.8319 8.7942 8.7699 8.6125 8.5805 8.5861 8.5825 8.5436 8.4974 8.449 8.3443 8.308 8.2861 8.2863 8.2365 8.1651 8.086 8.0245 7.9303 7.8926 7.8246 7.8176 7.8128 7.8099 7.7952 7.782 7.7683 7.6777 7.672 7.7281 7.7439 7.752 7.7506 7.6779 7.6371 7.6129 7.6021 7.602 7.5532 7.5528 7.5327 7.4797 7.5026 7.5422 7.6001 7.7566 7.8554 8.0535 8.0993 8.159 8.2247 8.2345 8.2377 8.2396 8.4287 8.4765 8.519 8.6744 8.7952 8.8395 8.9031 8.9056 8.9298 8.938 9.0038 9.0448 9.0995 9.2029 9.2131 9.3067 9.3083 9.3083 9.3252 9.3263 9.2923 9.2822 9.1716 9.1392 8.8991 8.8415 8.7418 8.554 8.5396 8.5142 8.49 8.3995 8.3738 8.2104 7.917 7.6944 7.1517 6.9596 6.9061 6.6922 6.6899 6.6175 6.5608 6.5435 6.4949 6.4838 6.4639 6.452 6.452 6.4125 6.3284 6.3149 6.3346 6.3974 6.4633 6.4702 6.4813 6.6129 6.7773 6.7805 6.9048 6.9699 7.0393 7.0437 7.004 7.0884 7.0703 7.0691 7.065 7.0564 7.0475 7.0203 7.0018 6.8885 6.8603 6.7722 6.7298 6.7261 6.7192 6.7144 6.7144 6.7107 6.7107 6.6783 6.6725 6.5999 6.5836 6.5835 6.5169 6.3882 6.3756 6.0948 6.0379 6.0377 5.9932 5.9745 5.964 5.9559 5.9538 5.9538 5.9483 5.9124 5.8672 5.8352 5.8139 5.8094 5.8043 5.7711 5.7377 5.7257 5.6956 5.6637 5.6541 5.6486 5.6287 5.5902 5.5856 5.5349 5.5064 5.5048 5.4714 5.4661 5.466 5.4591 5.4594 5.4581 5.4519 5.4518 5.4512 5.4494 5.4502 5.4528 5.4523 5.4476 5.4521 5.4535 5.4626 5.4803 5.5015 5.5017 5.5391 5.546 5.5648 5.5753 5.5845 5.5988 5.6087 5.6553 5.6555 5.6396 5.6282 5.6186 5.583 5.5685 5.547 5.5448 5.5094 5.4776 5.3817 5.3627 5.3245 5.31 5.3087 5.3125 5.3124 5.3079 5.2761 5.2258 5.1945 5.1519 5.106 5.0474 5.0149 5.0112 4.9339 4.9046 4.874 4.8571 4.8533 4.8517 4.8454 4.8162 4.7574 4.7647 4.764 4.7674 4.7665 4.7667 4.7661 4.7653 4.7475 4.7431 4.7046 4.6475 4.6453 4.6353 4.6371 4.6436 4.6465 4.6497 4.6473 4.6439 4.6432 4.6373 4.6365 4.6318 4.6152 4.6134 4.6131 4.6112 4.6098 4.6011 4.601 4.5911 4.5882 4.5625 4.4914 4.4118 4.403 4.3991 4.4515 4.4547 4.4622 4.4641 4.474 4.4805 4.4858 4.4909 4.4909 4.4936 4.4861 4.486 4.4828 4.4827 4.4656 4.4623 4.4438 4.4502 4.3949 4.3421 4.2807 4.1178 4.1008 4.0554 3.9732 3.9548 3.9545 3.9318 3.9317 3.8291 3.7721 3.7707 3.7321 3.7307 3.6319 3.6122 3.6121 3.6006 3.6002 3.563 3.5625 3.5113 3.4972 3.4833 3.4152 3.3974 3.3973 3.3928 3.3599 3.3532 3.3444 3.1407 3.1171 3.0212 3.0066 2.984 2.9231 2.9128 2.819 2.8128 2.809 2.79 2.7898 2.7073 2.6891 2.6849 2.6826 2.6808 2.682 2.6833 2.7008 2.7099 2.71 2.7097 2.7129 2.7147 2.7321 2.7728 2.7765 2.7765 2.7793 2.7786 2.7786 2.7793 2.7787 2.7625 2.7271 2.7166 2.7169 2.7178 2.7682 2.7683 2.768 2.7681 2.7772 2.8266 2.868 2.8681 2.8701 2.8658 2.8657 2.8319 2.7979 2.7885 2.7884 2.7853 2.7852 2.7824 2.7824 2.7701 2.75 2.7448 2.7377 2.7311 2.7116 2.69 2.6781 2.668 2.6642 2.6601 2.6557 2.6396 2.6332 2.6332 2.6281 2.6224 2.6154 2.5988 2.594 2.5834 2.5827 2.5815 2.5754 2.5736 2.5207 2.5202 2.5202 2.5131 2.5099 2.5022 2.4958 2.4899 2.4979 2.5104 2.5123 2.519 2.5181 2.4863 2.4857 2.4819 2.4619 2.4217 2.4129 2.4105 2.4018 2.3952 2.348 2.3094 2.3081 2.2968 2.2649 2.2394 2.1986 2.1262 2.0588 2.0459 2.0404 2.0402 2.0009 2.0005 1.9893 1.988 1.9591 1.9466 1.9425 1.9352 1.9215 1.9014 1.8755 1.8685 1.8641 1.864 1.8482 1.8101 1.7753 1.7743 1.7578 1.755 1.7397 1.7342 1.7344 1.7309 1.7415 1.7415 1.7138 1.7134 1.7157 1.7154 1.7263 1.7323 1.7354 1.7381 1.764 1.8098 1.8162 1.8245 1.8386 1.847 1.8606 1.9048 1.9269 1.9723 1.9857 1.9858 2.1092 2.1586 2.2715 2.2926 2.3029 2.3172 2.3286 2.311 2.3104 2.2932 2.2662 2.2567 2.2434 2.2278 2.2204 2.2094 2.2061 2.2029 2.2029 2.2048 2.2062 2.2082 2.2079 2.2287 2.2297 2.2323 2.2466 2.2484 2.2519 2.2628 2.2887 2.2855 2.2809 2.2795 2.2795 2.2462 2.246 2.2314 2.2314 2.213 2.2127 2.2196 2.2202 2.2327 2.2605 2.2695 2.2696 2.2716 2.2654 2.2609 2.2603 2.2523 2.2137 2.2111 2.2072 2.1906 2.1876 2.1826 2.1823 2.1629 2.1602 2.1376 2.1364 2.1006 2.1 2.0707 2.0705 2.0515 2.0466 2.041 2.0357 2.0269 2.0205 2.0205 2.0128 1.9973 1.9948 1.9893 1.9803 1.9719 1.9671 1.9635 1.9613 1.9421 1.9407 1.9408 1.9409 1.9393 1.9495 1.9501 1.9501 1.9581 1.9597 1.9949 2.0155 2.0122 2.0087 2.0049 1.995 1.9912 2.0041 2.0074 2.0076 1.9999 1.9893 1.9852 1.9793 1.9736 1.9703 1.969 1.9415 1.9399 1.9442 1.9618 2.004 2.0077 2.0097 2.0146 2.0092 2.0092 1.9889 1.9877 1.9757 1.9608 1.9606 1.9558 1.9554 1.9502 1.9502 1.9435 1.9188 1.9189 1.9146 1.9005 1.9004 1.8992 1.8992 1.8722 1.859 1.859 1.859 1.8637 1.8619 1.8512 1.8289 1.8283 1.8267 1.8259 1.8361 1.8371 1.8309 1.8169 1.7936 1.7878 1.7602 1.7474 1.7367 1.722 1.7164 1.7047 1.6654 1.6608 1.6033 1.5688 1.5683 1.5512 1.551 1.5159 1.5157 1.4983 1.4874 1.3762 1.3758 1.3532 1.3387 1.3235 1.2634 1.2488 1.2078 1.2059 1.1853 1.1789 1.1595 1.13 1.1151 1.0608 1.0447 1.0443 1.0293 0.91021 0.90995 0.86792 0.88404 0.98054 0.98563 1.046 1.0775 1.0787 1.092 1.1048 1.1049 1.1298 1.1304 1.1497 1.1652 1.1757 1.1706 1.1796 1.1812 1.1827 1.2142 1.2134 1.2114 1.2089 1.1598 1.135 1.1339 1.1381 1.1425 1.1429 1.1487 1.1495 1.1503 1.1442 1.1436 1.1405 1.1413 1.1915 1.1936 1.246 1.2552 1.2553 1.2674 1.2738 1.2758 1.2927 1.3346 1.3516 1.3503 1.3335 1.2933 1.2589 1.2449 1.234 1.1979 1.1951 1.1796 1.1836 1.183 1.1723 1.1612 1.1386 1.1307 1.1282 1.1235 1.0897 1.0516 1.0489 1.0498 1.0418 1.0401 1.0385 1.0439 1.1257 1.1458 1.1545 1.1719 1.1736 1.1736 1.1738 1.1616 1.1775 1.1795 1.1814 1.1975 1.1982 1.2284 1.25 1.2778 1.2826 1.2822 1.2804 1.279 1.266 1.2599 1.2517 1.2456 1.231 1.2388 1.2145 1.2083 1.2045 1.2696 1.3217 1.3166 1.3022 1.1957 1.1824 1.1763 1.1622 1.1358 1.1379 1.1273 1.1311 1.1347 1.1416 1.1438 1.1538 7.09 7.0918 7.0912 7.0787 7.0073 6.9863 6.9862 6.9437 6.9311 6.9309 6.9066 6.881 6.8362 6.7842 6.7805 6.7804 6.7243 6.6653 6.633 6.6329 6.6 6.5834 6.5429 6.4562 6.4312 6.3802 6.38 6.3375 6.3269 6.3268 6.2234 6.1201 6.1165 6.1164 6.079 6.0225 6.0094 5.9667 5.9623 5.929 5.8828 5.8542 5.8266 5.7726 5.7724 5.7593 5.7585 5.708 5.6953 5.6701 5.67 5.5861 5.4907 5.2562 5.0648 5.0403 5.0073 4.9906 4.9628 4.9181 4.7667 4.7642 4.6475 4.5995 4.4768 4.4679 4.3892 4.386 4.3468 4.2857 4.2744 4.2333 4.2033 4.2002 4.1491 4.128 4.1101 4.0681 4.0626 4.0407 3.9767 3.9753 3.929 3.7657 3.7196 3.7148 3.7105 3.7104 3.7066 3.7065 3.6301 3.617 3.5841 3.5783 3.5782 3.572 3.566 3.5631 3.5617 3.5406 3.5256 3.5222 3.49 3.4885 3.4626 3.447 3.4206 3.4085 3.2199 3.1623 3.1454 3.1643 3.15 3.1516 3.1517 3.1526 3.1526 3.1186 3.1327 3.2751 3.3247 3.2987 3.2828 3.2824 3.277 3.2292 3.1432 3.1096 3.0461 3.0455 2.8939 2.8165 2.6988 2.6036 2.451 2.4106 2.3965 2.3606 2.3567 2.2387 2.2198 2.2187 2.2018 2.1785 2.1639 2.1476 2.1147 2.0865 2.0444 2.0094 2.0046 1.9788 1.9193 1.8862 1.8673 1.8513 1.772 1.7711 1.716 1.6803 1.6756 1.64 1.64 1.6383 1.6349 1.6449 1.6551 1.6922 1.7492 1.7638 1.8 1.8457 1.8893 1.905 1.9981 2.0245 2.0261 2.0353 2.0333 2.0259 2.0258 2.0245 2.0244 2.0049 1.9896 1.9896 1.9642 1.963 1.961 1.9458 1.8569 1.8566 1.8407 1.8405 1.8214 1.8212 1.8026 1.8024 1.7974 1.806 1.8439 1.8991 1.9787 1.9943 1.9969 2.035 2.0619 2.0803 2.0785 2.058 2.053 2.0446 2.0544 2.0542 2.0522 2.0092 1.9823 1.977 1.9556 1.9431 1.9415 1.9326 1.9307 1.9307 1.9166 1.884 1.8782 1.8767 1.8697 1.8463 1.8288 1.8275 1.8274 1.826 1.826 1.8445 1.834 1.7986 1.761 1.7338 1.6771 1.6737 1.6645 1.6542 1.6438 1.6331 1.6298 1.625 1.6145 1.6141 1.6129 1.598 1.5946 1.5946 1.6036 1.6608 1.689 1.7057 1.7107 1.7161 1.7303 1.7373 1.7875 1.7951 1.7952 1.7959 1.7836 1.7797 1.7505 1.7508 1.7515 1.7516 1.753 1.7626 1.7747 1.7755 1.7646 1.745 1.7315 1.7467 1.748 1.7819 1.8114 1.8093 1.7905 1.7552 1.7422 1.6437 1.5873 1.5818 1.5282 1.5249 1.5247 1.502 1.4827 1.4148 1.4129 1.3954 1.3178 1.2935 1.2881 1.2569 1.2546 1.2346 1.2333 1.2245 1.1673 1.1636 1.1494 1.1494 1.134 1.134 1.12 1.1033 1.1073 1.1104 1.1104 1.1141 1.1141 1.1353 1.1377 1.1616 1.1643 1.1665 1.1627 1.1542 1.1493 1.1462 1.1466 1.1464 1.1362 1.1425 1.1435 1.1431 1.1405 1.122 1.1335 1.1346 1.1575 1.1577 1.1579 1.1547 1.1527 1.152 1.1483 1.143 1.1222 1.1043 1.0959 1.0813 1.0631 1.0373 1.036 1.0185 1.0159 1.0293 1.0421 1.1149 1.1194 1.1165 1.1225 1.1226 1.1029 1.0363 1.0162 0.98284 0.98174 0.90273 0.90177 0.89715 0.86257 0.84643 0.82724 0.80015 0.79967 0.79021 0.82418 0.82631 0.82722 0.81103 0.79533 0.77464 0.77543 0.77392 0.78021 0.79564 0.80433 0.80628 0.8067 0.83095 0.87336 0.87622 0.89301 0.89661 0.89828 0.89961 0.89964 0.90913 0.90925 0.95893 0.97772 0.99914 1.0058 1.0327 1.0558 1.0791 1.1113 1.1167 1.1169 1.0852 1.0363 1.0222 1.022 0.97349 0.97329 0.92641 0.92157 0.87371 0.87146 0.83011 0.81837 0.77052 0.73055 0.70141 0.69205 0.67799 0.66129 0.63368 0.6041 0.59752 0.58216 0.56073 0.55987 0.54073 0.52377 0.51719 0.51774 0.53362 0.53988 4.4996 4.4648 4.4624 4.4488 4.3106 4.295 4.2871 4.2047 4.1569 4.1212 4.0539 4.0243 4.0219 3.9498 3.952 3.9536 3.9555 3.9905 3.9652 3.9605 3.9191 3.8706 3.8308 3.7982 3.7418 3.6828 3.6757 3.6512 3.5932 3.5773 3.4923 3.4232 3.3994 3.373 3.3183 3.3181 3.3134 3.2951 3.2906 3.1752 3.1557 3.1556 3.079 3.0781 3.0206 3.0203 2.9641 2.9635 2.9407 2.8499 2.837 2.7202 2.5817 2.5778 2.338 2.3339 2.1747 2.1259 2.0628 2.0295 1.9814 1.9806 1.9179 1.9174 1.8863 1.8635 1.8082 1.7997 1.7454 1.7421 1.7152 1.6664 1.655 1.6249 1.5762 1.5641 1.5256 1.5008 1.4929 1.4975 1.5134 1.563 1.5711 1.6274 1.6392 1.865 1.9328 1.9526 1.9713 1.9712 1.971 1.9416 1.8425 1.8087 1.7796 1.7283 1.5965 1.5277 1.5264 1.4958 1.4761 1.4493 1.424 1.4184 1.4219 1.4257 1.4279 1.4304 1.4417 1.478 1.5468 1.6366 1.6476 1.7046 1.7092 1.7153 1.7164 1.716 1.7107 1.7202 1.7341 1.7499 1.7763 1.7798 1.7784 1.8034 1.807 1.8088 1.8024 1.7738 1.7721 1.7661 0.016959 0.016858 0.016028 0.015997 0.015324 0.015282 0.015214 0.014961 0.015039 0.015179 0.015228 0.015301 0.015424 0.016275 0.016622 0.017687 0.017793 0.018072 0.017935 0.017497 0.017416 0.016656 0.01582 0.015227 0.01447 0.014211 0.014235 0.01452 0.014518 0.014509 0.014436 0.014238 0.014112 0.014341 0.014383 0.014733 0.014735 0.01478 0.014781 0.014521 0.014444 0.014329 0.014083 0.013776 0.013857 0.013923 0.013923 0.013921 0.013921 0.013909 0.013909 0.013887 0.013887 0.013867 0.013753 0.013713 0.013628 0.013585 0.013589 0.013587 0.013544 0.013625 0.013627 0.013621 0.013662 0.013699 0.013473 0.013041 0.012969 0.012215 0.011599 0.011582 0.011641 0.011459 0.011324 0.011311 0.010996 0.010919 0.010889 0.010832 0.010607 0.010317 0.010315 0.010278 0.010179 0.010064 0.010066 0.0099327 0.0098586 0.010168 0.010378 0.010674 0.010832 0.010979 0.010982 0.01099 0.010966 0.010965 0.010861 0.011635 0.012255 0.013054 0.012624 0.012546 0.012364 0.011463 0.011456 0.011393 0.01132 0.011209 0.010899 0.010885 0.010223 0.010147 0.010003 0.0098881 0.0098876 0.0098858 0.0095683 0.0094292 0.0094286 0.0092554 0.0087877 0.0087578 0.0084279 0.0083115 0.0078987 0.0078731 0.0077249 0.0073592 0.0071495 0.006934 0.0069322 0.0068631 0.0068628 0.0068261 0.0068865 0.007257 0.0073096 0.0074065 0.0073934 0.0074115 0.0074383 0.0077351 0.007742 0.0077445 0.0083393 0.0084016 0.0084021 0.0091464 0.0093061 0.009314 0.0095741 0.0096508 0.009706 0.0097032 0.0096351 0.0096268 0.0095928 0.0094971 0.0094365 0.0095052 0.0095573 0.009569 0.0093908 0.0093395 0.0087842 0.0087606 0.0086567 0.0086212 0.0086133 0.0085579 0.0084364 0.0083233 0.0079835 0.0077545 0.0077508 0.0076083 0.0075551 0.0073523 1.7198 1.7165 1.7394 1.7434 1.7604 1.7598 1.7605 1.7743 1.7654 1.7658 1.7647 1.7541 0.017238 0.016867 0.01685 0.01683 0.016715 0.016445 0.016352 0.016324 0.016287 0.016291 0.016298 0.016288 0.016244 0.01624 0.016157 0.016157 0.016034 0.015928 0.01585 0.015848 0.015712 0.015491 0.015013 0.014781 0.014638 0.014626 0.014497 0.0145 0.014493 0.014437 0.014452 0.014277 0.014208 0.013861 0.01386 0.013827 0.013808 0.013809 0.013621 0.013572 0.013473 0.013472 0.013303 0.013297 0.013297 0.013145 0.013124 0.013099 0.013186 0.013298 0.013323 0.013372 0.01316 0.012899 0.012452 0.012035 0.012013 0.011908 0.011688 0.011688 0.011686 0.01156 0.011496 0.0112 0.01111 0.011072 0.010867 0.010861 0.010489 0.010442 0.010441 0.01042 0.01042 0.010376 0.010431 0.010911 0.010944 0.010944 0.011816 0.012018 0.012527 0.013146 0.013495 0.014001 0.014044 0.013961 0.013876 0.012319 0.012313 0.0114 0.011389 0.011204 0.010821 0.010557 0.010552 0.010234 0.010067 0.010024 0.0095497 0.0096378 0.0096436 0.0096114 0.009421 0.0094145 0.0094233 0.0094387 0.0094767 0.0094654 0.0095043 0.0094733 0.0095297 0.0094287 0.0093253 0.0092321 0.0091055 0.0084969 0.0084945 0.0083969 0.0077963 0.0072655 0.0068497 0.0061853 0.005943 0.0057822 0.0055495 0.0048767 0.0048941 0.0048944 0.0049474 0.0049614 0.0049791 0.0053587 0.0057395 0.0058028 0.0058117 0.0060006 0.0059903 0.006184 0.006224 0.0064722 0.0064908 0.0064912 0.0072402 0.0076364 0.007714 0.0077081 0.0077016 0.0076448 0.0074411 0.0073489 0.0072657 0.0071783 0.0066602 0.0066333 0.006432 0.0064262 0.0060879 0.0058331 0.0055654 0.0054196 0.005345 0.0052758 0.0052484 0.0052432 0.0052378 0.0051233 0.0051154 0.0051052 0.0050556 0.0050732 0.0050275 0.0049991 0.0049859 0.0050382 0.0053813 0.0053846 0.0054278 0.0054928 0.0054941 0.0053397 0.0054736 0.0054749 0.0057822 0.006293 0.0062933 0.0064642 0.0069869 0.0070222 0.0068912 0.0068625 0.0065784 0.0063577 0.0063158 0.0063252 0.0060966 0.0060929 0.0061345 0.0061904 0.0063245 0.0064567 0.0066425 0.0068287 0.0069085 0.0069268 0.0069327 0.0068453 0.006731 0.0065792 0.006492 0.006125 0.0060158 0.005416 0.005515 0.0055102 0.005516 0.0059631 0.0058822 0.0059197 0.0059944 0.0059225 0.005978 0.0059395 0.0061274 0.0061696 0.0061514 0.0067405 0.0067913 0.0071203 0.0075101 0.0077444 0.0077311 0.0076966 0.0075785 0.0075574 0.0074303 0.0073884 0.0073883 0.0073584 0.0072617 0.0069056 0.0068954 0.0068538 0.0067566 0.0067247 0.0064831 0.006169 0.006105 0.0064955 0.0064831 0.0066474 0.0067903 0.0067938 1.8231 1.7983 1.7305 1.7256 1.7155 1.6587 1.6259 1.6054 1.5768 1.5703 1.5066 1.5014 1.4916 1.4918 1.5209 1.5436 1.5462 1.6205 1.6803 1.744 1.8101 1.8313 1.8512 1.9316 1.9563 1.9653 1.9751 1.9719 1.9312 1.9189 1.9186 1.8896 1.8485 1.8072 1.8042 1.8032 1.784 1.7808 1.7785 1.7735 1.7428 1.7371 1.7434 1.7999 1.8072 1.8107 1.8117 1.8093 1.8036 1.7741 1.7375 1.6946 1.6641 1.5896 1.5153 1.5086 1.4816 1.4515 1.4417 1.4414 1.4192 1.4187 1.4125 1.4208 1.421 1.4517 1.5237 1.5225 1.5142 1.514 1.4449 1.4337 1.4042 1.3777 1.3456 1.3451 1.3392 1.3252 1.3245 1.298 1.2908 1.3234 1.3256 1.3412 1.3679 1.37 1.3795 1.3797 1.379 1.3695 1.3044 1.259 1.22 1.215 1.1888 1.1602 1.0931 1.08 1.0826 1.165 1.1813 1.2076 1.2094 1.1993 1.1924 1.1904 1.1873 1.0873 0.92158 0.90697 0.77988 0.75393 0.71583 0.69068 0.67372 0.67231 0.66091 0.65526 0.64365 0.65099 0.70691 0.78945 0.82314 0.83183 0.83317 0.8737 0.8653 0.88101 0.92175 0.92886 0.94634 0.95336 0.95776 0.97932 0.97396 0.9515 0.91034 0.89592 0.88164 0.87835 0.87517 0.81635 0.80744 0.79216 0.79193 0.77784 0.75399 0.73881 0.7019 0.67647 0.67162 0.66053 0.66124 0.67471 0.016562 0.016501 0.015889 0.015872 0.014968 0.014898 0.014636 0.014764 0.015101 0.015118 0.015213 0.015228 0.015474 0.016029 0.016342 0.016989 0.017824 0.017772 0.017641 0.01715 0.016484 0.016447 0.016236 0.016235 0.015579 0.014875 0.014112 0.013593 0.013252 0.012853 0.012851 0.012142 0.01153 0.01098 0.010294 0.0095283 0.0094398 0.008987 0.008912 0.0085214 0.0083997 0.0077354 0.0078238 0.0078397 0.0078335 0.0078097 0.0077918 0.00873 0.0091333 0.010522 0.010556 0.010433 0.010013 0.010008 0.0099956 0.0099953 0.0099389 0.009817 0.0094626 0.0092857 0.0091233 0.0091047 0.0090238 0.0089275 0.0088652 0.0088123 0.0086738 0.013241 0.013211 0.0131 0.013097 0.01294 0.012755 0.012639 0.012588 0.011582 0.011549 0.011389 0.011388 0.010996 0.010804 0.010803 0.010187 0.010072 0.0097963 0.0097757 0.0095992 0.0095985 0.0086517 0.0085395 0.0084556 0.008021 0.0078947 0.007603 0.0075947 0.0077469 0.77284 0.76412 0.75805 0.74536 0.74621 0.75515 0.78552 0.82192 0.83831 0.95116 0.95163 0.99186 1.0185 1.0227 1.0496 1.0534 1.0603 1.0671 1.0654 1.0639 1.0578 1.0747 1.089 1.0893 1.1172 1.1481 1.1517 1.1492 1.1566 1.1544 1.1475 1.1383 1.1324 1.1295 1.1205 1.0462 1.0459 0.99908 0.98247 0.95422 0.94899 0.94864 0.89497 0.89475 0.80758 0.80433 0.79103 0.77148 0.76218 0.73803 0.73568 0.72979 1.7809 1.7775 1.7557 1.7555 1.7353 1.7254 1.7464 1.7415 1.734 1.7312 1.7303 1.7199 1.6742 1.6489 1.6342 1.6339 1.6144 1.6143 1.4902 1.4897 1.4369 1.3936 1.3901 1.2586 1.2296 1.1772 1.1551 1.152 1.1454 1.1089 1.085 1.0652 0.95732 0.91603 0.86002 4.3645 4.3331 4.3076 4.2382 4.2173 4.1877 4.169 4.0967 4.084 4.0667 4.055 4.0398 4.0326 4.0481 4.1337 4.2152 4.2363 4.239 4.2368 4.2248 4.2217 4.2208 4.2219 4.199 4.1683 4.1508 4.1501 4.1211 4.0531 4.0813 4.0736 4.0833 4.1127 4.161 4.1708 4.1717 4.1718 4.1652 4.1508 4.1505 4.1345 4.128 4.1267 4.1247 4.121 4.0642 4.0214 3.9563 3.9282 3.9262 3.9321 3.9101 3.8783 3.883 3.8956 3.899 3.8999 3.8975 3.8902 3.8102 3.7653 3.7616 3.7382 3.7167 3.6843 3.626 3.6254 3.565 3.5522 3.5166 3.5159 3.4835 3.4717 3.4479 3.4513 3.4596 3.4851 3.4859 3.4998 3.5084 3.5113 3.5487 3.5958 3.5963 3.5988 3.6001 3.6292 3.6523 3.6452 3.6426 3.6241 3.614 3.5653 3.5534 3.346 3.3323 3.0217 2.9552 2.9101 2.9096 2.8533 2.8079 2.7935 2.7933 2.7569 2.7029 2.6645 2.6528 2.4982 2.4489 2.4027 2.4025 2.3733 2.3387 2.3023 2.2974 2.2961 2.3132 2.3203 2.3215 2.3212 2.3228 2.3539 2.3792 2.4124 2.4821 2.4864 2.4873 2.5594 2.5605 2.5543 2.5525 2.5504 2.5361 2.5012 2.494 2.4926 2.4713 2.471 2.4557 2.4556 2.4317 2.4314 2.4078 2.3781 2.3718 2.3668 2.366 2.366 2.3596 2.3636 2.364 2.3725 2.3766 2.3798 2.3902 2.3939 2.394 2.3819 2.3157 2.3051 2.3017 2.3005 2.2945 2.2799 2.2702 2.2364 2.2357 2.2355 2.2083 2.2255 2.2231 2.2133 2.1933 1.8983 1.8971 1.8303 1.8295 1.7881 1.7879 1.7327 1.7284 1.6656 1.6654 1.6097 1.6092 1.5672 1.5658 1.5508 1.5508 1.5234 1.5233 1.5201 1.5201 1.5117 1.5116 1.5068 1.4962 1.4831 1.4738 1.4627 1.5244 1.6654 1.6683 1.6888 1.7003 1.7031 1.7031 1.7156 1.7136 1.7017 1.6666 1.6474 1.6468 1.6386 1.5991 1.5979 1.597 1.5963 1.5977 1.6061 1.6052 1.6302 1.6303 1.6385 1.6415 1.6419 1.6479 1.648 1.6454 1.6447 1.6371 1.6331 1.6238 1.6422 1.6476 1.653 1.6572 1.6573 1.6569 1.6569 1.6458 1.6457 1.657 1.7039 1.7137 1.7549 1.832 1.8456 1.8127 1.7889 1.7831 1.7579 1.7532 1.7475 1.7396 1.6721 1.6716 1.6689 1.6689 1.6589 1.648 1.6401 1.6279 1.62 1.6192 1.6226 1.6256 1.6443 1.6467 1.6524 1.6532 1.6759 1.6776 1.6773 1.6778 1.6807 1.6792 1.6758 1.6704 1.6621 1.6616 1.6521 1.6217 1.6004 1.5678 1.5513 1.5415 1.5292 1.4882 1.4839 1.4822 1.4811 1.4594 1.4163 1.4078 1.401 1.3798 1.3731 1.3711 1.3627 1.361 1.3742 1.3824 1.3887 1.3913 1.3885 1.3573 1.3645 1.384 1.4038 1.4386 1.4684 1.5169 1.5473 1.5674 1.5732 1.5742 1.5741 1.5702 1.5697 1.5372 1.5196 1.5244 1.527 1.5561 1.5648 1.5862 1.5998 1.6061 1.6173 1.6216 1.636 1.6433 1.6461 1.6799 1.6893 1.6958 1.7454 1.7575 1.7559 1.7523 1.7025 1.6843 1.6712 1.62 1.6109 1.6107 1.6102 1.5856 1.5591 1.5524 1.5203 1.5139 1.5155 1.5417 1.5672 1.5913 1.6005 1.6129 1.6181 1.6705 1.6804 1.6868 1.729 1.7308 1.7333 1.7315 1.7306 1.7198 1.5764 1.5617 1.5481 1.4073 1.4021 1.296 1.2618 1.2612 1.1667 1.1516 1.1435 1.1435 1.0916 1.0883 1.0855 1.0854 1.0728 1.0725 1.0382 1.0379 1.0303 1.0283 1.0154 1.005 0.978 0.93861 0.88887 0.86828 0.84345 0.84304 0.80863 0.76439 0.74121 0.76211 0.76249 0.85933 0.91117 0.96171 0.999 1.0663 1.0742 1.0735 1.0953 1.0706 1.0961 1.0963 1.1423 1.1661 1.1695 1.1736 1.1276 1.0827 0.97933 0.97326 0.95832 0.89525 0.89522 0.88788 0.88365 0.87675 0.86281 0.87354 0.87381 0.87427 0.87451 0.88089 0.88107 0.92139 0.9397 0.93991 0.95826 1.0067 1.0443 1.0685 1.0707 1.7678 1.7907 1.8162 1.8173 1.8412 1.8583 1.862 1.862 1.8571 1.8425 1.8996 1.9979 2.0237 2.0859 2.0949 2.0895 2.0802 2.0165 1.9878 1.915 1.9081 1.908 1.8934 1.8453 1.8421 1.7736 1.7542 1.7064 1.696 1.6959 1.6163 1.6 1.5679 1.5678 1.539 1.4929 1.4534 1.4306 1.4303 1.393 1.381 1.3588 1.3168 1.3143 1.2769 1.2413 1.2163 1.1999 1.1984 1.1833 1.1746 1.1713 1.17 1.1566 1.1434 1.1288 1.1019 1.0458 0.99632 0.98445 0.92479 0.92693 0.93495