# For a description of the Tecplot format see the Tecplot User's guide.
#
Variables=x,y,z,s_u,s_v,s_w,s_p,mono_f_vel_u,mono_f_vel_v,mono_f_vel_w,const,u_nu,v_nu,w_nu,p_nu,x_nu,y_nu,z_nu,const,u_ref,v_ref,w_ref,vol_ref,x_ref,y_ref,z_ref,const,I1,I2,I3,J,p1,p2,p3
Zone f=fepoint, n=246, e=987, et=brick, c=black
38.0652 186.273 153.575 38.065242356520919 186.27336913423539 153.57483533752017 -3.9018017185758884 -1.6448180553516257e-07 8.8314416432005510e-08 -1.3931146517249346e-07 -3.6448752522321670 -3.6498873455526049e-06 -2.6394581825739394e-07 -4.3733298937420617e-05 0.00023159445596385194 1.7621374085114188e-11 -5.0771860209611351e-11 -6.4961490639428774e-12 0.00024157032452176545 37.813509013000001 185.98771463999995 152.49007815000002 1568.1286420541724 0.0000000000000000 0.0000000000000000 0.0000000000000000 0.0000000000000000 0.75279931034258196 0.18890178541496874 0.015800489814532526 0.12570064028233058 3934.4106453654899 0.12570000044513779 0.0000000000000000 
38.007098392853209 201.89525262318750 167.23824867857610 38.007098392853209 201.89525262318745 167.23824867857607 -3.6045261417717520 -3.2488866742308483e-07 1.3999550709059564e-07 -1.1606685407050810e-06 -3.1589564618697348 -3.6466711479665737e-06 -2.7782784700614021e-07 -4.7242160281235617e-05 0.00021436396787587363 3.0564475673676584e-11 -5.5703673162387839e-11 1.4496273891748656e-10 0.00018007040638165839 37.755586870999998 201.59457435000007 166.06645798000000 1115.6658590402926 0.0000000000000000 0.0000000000000000 0.0000000000000000 0.0000000000000000 0.75282952961504235 0.18891698426838588 0.015802400868445497 0.12570333789607560 3934.9025596021156 0.12570759963672823 0.0000000000000000 
65.065341007717961 203.64125007390180 148.39924116010690 65.065341007717961 203.64125007390169 148.39924116010695 -4.6993876760248456 5.5328424153425679e-07 1.0052236222452468e-06 -5.4527547035417269e-07 0.0000000000000000 -5.4331983364636436e-06 -6.2906922950850418e-07 -4.2555743992136048e-05 0.00029673677634668949 -4.0302887227408027e-11 -4.5260441181666779e-11 9.5253174761838560e-12 0.0000000000000000 64.706898088665852 203.32599865957309 147.35284761981995 1170.9507322714735 0.0000000000000000 0.0000000000000000 0.0000000000000000 0.0000000000000000 0.75272126441543608 0.18886264874515066 0.015795583467346257 0.12568937905270464 3933.4640936569626 0.12568047625580550 0.0000000000000000 
58.305467803310364 219.11110134836929 155.04006443260801 58.305467803310407 219.11110134836935 155.04006443260809 -5.3935882409449230 4.7203277356835929e-07 1.1559259078589271e-06 -7.7292976967129133e-07 0.0000000000000000 -4.7694628568517592e-06 -2.9312629537536772e-07 -4.4109580146389771e-05 0.00030302868284658651 -1.8275992003107864e-12 -7.1223688649617464e-11 5.3863161050862526e-12 0.0000000000000000 57.976517148132935 218.79386635806736 153.94597399654558 871.12382118538517 0.0000000000000000 0.0000000000000000 0.0000000000000000 0.0000000000000000 0.75269063390237545 0.18884721435260263 0.015793639175097237 0.12568473304634978 3932.3819566353350 0.12567274623035016 0.0000000000000000 
106.68028408495377 203.25643140584970 168.67181990896071 106.68028408495371 203.25643140584970 168.67181990896066 -4.4763706921199420 4.1324616827903864e-08 2.3494670862144978e-07 -3.4559116011623811e-07 0.0000000000000000 -7.4452858273565958e-06 -2.7903741842139057e-07 -4.7610311517842785e-05 0.00041731569250677233 -6.5770136580883537e-11 5.3750866016981369e-11 -3.5975508591550880e-11 0.0000000000000000 106.16678147036436 202.95444406841523 167.49089761680582 1451.6544664497774 0.0000000000000000 0.0000000000000000 0.0000000000000000 0.0000000000000000 0.75279273063338625 0.18889849436382250 0.015800078266454080 0.12569639146117295 3933.6916852845998 0.12569836145674795 0.0000000000000000 
93.298108510780850 213.79602890773307 153.54503536303943 93.298108510780835 213.79602890773310 153.54503536303943 -5.3886913461257073 -3.0776669744505874e-07 5.8642340733500302e-07 -8.1796006035999801e-07 0.0000000000000000 -6.7050590805139967e-06 -2.8840318369582896e-07 -4.3725646103054412e-05 0.00037301554621263608 -2.6605498554683687e-11 -1.9839111723252506e-11 1.5932466674377272e-11 0.0000000000000000 92.835659459041835 213.48390549527133 152.46046799605259 1374.0431229362807 0.0000000000000000 0.0000000000000000 0.0000000000000000 0.0000000000000000 0.75267937442355359 0.18884162172811084 0.015792944814763173 0.12568196286405522 3932.0520436189213 0.12566998258300946 0.0000000000000000 
106.31179664490578 179.06722960826318 168.38074628103649 106.31179664490581 179.06722960826309 168.38074628103644 -4.4712302803019828 7.1074646515509768e-07 -3.2671182621432459e-07 -7.3811095042714176e-08 0.0000000000000000 -7.4249031698503396e-06 -2.5754225604912584e-07 -4.7535561757905409e-05 0.00044338655000490196 -1.1367956205797851e-11 -4.8022387129997908e-12 -1.8556945472050904e-11 0.0000000000000000 105.79969982540383 178.78850535694073 167.20167807608388 2450.7686744678872 0.0000000000000000 0.0000000000000000 0.0000000000000000 0.0000000000000000 0.75268986143218353 0.18884688040086223 0.015793604115767589 0.12568589918843209 3933.9822592223495 0.12567261254190598 0.0000000000000000 
76.119319111241907 193.52285186732834 158.13338300230657 76.119319111241936 193.52285186732840 158.13338300230669 -4.1862314666111411 1.6185277867854843e-07 7.1351215338778763e-07 -4.2297230525746835e-07 0.0000000000000000 -6.2186990200685518e-06 -6.7565020260382198e-07 -4.4655948467534538e-05 0.00034132521892190877 -2.9546305453404316e-11 -1.5261850068668824e-11 3.0293934515950129e-11 0.0000000000000000 75.717375094302042 193.21622810126507 157.03338180528999 1144.4826376458880 0.0000000000000000 0.0000000000000000 0.0000000000000000 0.0000000000000000 0.75289756708214706 0.18895126989225106 0.015806720112647995 0.12571068150459369 3932.9144487713875 0.12572476996944579 0.0000000000000000 
120.95493633350205 178.21293383339480 134.32944727098871 120.95493633350203 178.21293383339480 134.32944727098874 -5.3962490839399750 -8.6477309660100144e-08 -5.2244534569457435e-07 -5.0966402503909440e-07 -5.3954031117115404 -8.2348793581932239e-06 -2.5678310136556531e-07 -3.8790946956523964e-05 0.00043296722188350498 -7.6729084583072567e-12 -1.8641633006302805e-11 -2.6356859968521858e-11 0.00047761397726913459 120.38697531999998 177.93503117000000 133.36727978000002 3315.6872353797526 0.0000000000000000 0.0000000000000000 0.0000000000000000 0.0000000000000000 0.75278395481845162 0.18889411686629240 0.015799532433177135 0.12568565672256152 3931.7299399358290 0.12569618727400805 0.0000000000000000 
122.99125855352860 150.91455645033719 167.29218228850601 122.99125855352854 150.91455645033724 167.29218228850598 -5.5124654685021977 1.5104288245171940e-07 -8.1370262566884891e-08 8.7735811352049314e-08 0.0000000000000000 -8.3475172551472632e-06 -2.3252502839854477e-07 -4.7256010809071380e-05 0.00041056826304573097 7.1028088000084627e-12 -1.2934810530655266e-11 2.0957368904724068e-11 0.0000000000000000 122.41552888508200 150.66290700972726 166.12004804243418 2788.4559803272532 0.0000000000000000 0.0000000000000000 0.0000000000000000 0.0000000000000000 0.75259799606001287 0.18880076840923279 0.015787817626865229 0.12567253600999129 3932.6421706813699 0.12564958082856864 0.0000000000000000 
103.68501104247240 159.28396528533960 152.06455384413485 103.68501104247235 159.28396528533955 152.06455384413488 -4.8807903719802956 4.1924876750952412e-07 -5.7481723711066871e-07 -3.9408892422627751e-07 0.0000000000000000 -8.7831160789244220e-06 -8.6069919472485026e-07 -4.2682419872359620e-05 0.00042446397021023488 1.1609063820870630e-12 -1.5424931671887259e-11 -8.0201138172966629e-12 0.0000000000000000 103.16264437007636 159.03337825173907 151.00577047027593 2614.5647304445974 0.0000000000000000 0.0000000000000000 0.0000000000000000 0.0000000000000000 0.75253331503694398 0.18876831080832079 0.015783745734725078 0.12566608214460073 3934.4621239289982 0.12563339249797595 0.0000000000000000 
135.97034804091666 135.45495989522109 210.57884086669966 135.97034804091666 135.45495989522107 210.57884086669964 -3.9817093891977393 3.2293710439307981e-07 8.2417840164604006e-07 -8.6390343203516188e-07 -3.3025888582761462 -9.0654475563560780e-06 -2.1878719874690583e-07 -5.8372331373790512e-05 0.00028604079830205932 -3.1266690803065333e-11 -8.8354029471628313e-11 5.1708417037917745e-11 0.00025728093843998542 135.34510260000002 135.21817816000001 209.13097830999999 2383.2023779596761 0.0000000000000000 0.0000000000000000 0.0000000000000000 0.0000000000000000 0.75280563222926578 0.18890497842726189 0.015800892962551709 0.12569948846400320 3934.2839492309022 0.12570160436372887 0.0000000000000000 
116.91493918440143 101.35901373760139 191.73731256498780 116.91493918440143 101.35901373760136 191.73731256498783 -4.9944324844275378 -4.4508939319919377e-07 -4.7915098345229534e-07 -1.2537060579197448e-06 -5.4279100104940659 -8.0114094224148502e-06 -1.8848862877451911e-07 -5.3533693438578840e-05 0.00030883341468763580 2.5520726293411182e-11 3.2841408123822519e-11 6.6485304897229923e-11 0.00031111832733596550 116.36239092999996 101.15502254000000 190.40946719000002 2640.5657475930620 0.0000000000000000 0.0000000000000000 0.0000000000000000 0.0000000000000000 0.75282654520478254 0.18891551084657895 0.015802219045551544 0.12569948846400333 3931.2506093188135 0.12570687677490736 0.0000000000000000 
122.31278684031504 108.34492947828886 221.80629121707770 122.31278684031506 108.34492947828883 221.80629121707767 -3.3821339660061618 -3.7971271004864726e-07 -9.4116529579655548e-07 -1.5096170942580206e-07 -2.7673291476116648 -8.3099880163194557e-06 -1.9469649727153998e-07 -6.1255620154632273e-05 0.00020963327766854726 4.1562970974193922e-11 6.2515251344544325e-11 -1.6804834815969105e-11 0.00016032841856009823 121.73964556999999 108.13421982999998 220.28691180000004 1907.3938422647439 0.0000000000000000 0.0000000000000000 0.0000000000000000 0.0000000000000000 0.75279991282029146 0.18890207501197162 0.015800524549009286 0.12569948846400320 3935.5040611655122 0.12570013751164180 0.0000000000000000 
105.30341051272586 122.16314099526164 208.15761290756552 105.30341051272582 122.16314099526157 208.15761290756561 -3.2720950700410372 4.8289385354158852e-08 -5.7945117237900216e-08 -9.8980289401537084e-07 0.0000000000000000 -7.3691249115048763e-06 -2.0697573922812129e-07 -5.7750542871326534e-05 0.00024909261985194442 -3.2663316590150360e-12 -2.1528741249627602e-11 9.1241463220739891e-11 0.0000000000000000 104.79516072874441 121.93914218401807 206.72517314201556 2433.5838456336692 0.0000000000000000 0.0000000000000000 0.0000000000000000 0.0000000000000000 0.75278850766044225 0.18889641305314253 0.015799821909970087 0.12569948846400314 3935.7436408469525 0.12569734178894446 0.0000000000000000 
38.014673546382639 163.39256462168237 155.77615022152315 38.014673546382632 163.39256462168228 155.77615022152310 -2.9717585933580075 1.0866963659928633e-07 9.1759230512518919e-08 3.5089465947618546e-07 -3.5965469501381033 -3.6470901574325865e-06 -2.4361331218969440e-07 -4.4298612184856534e-05 0.00014583591205432394 -2.1170838992932226e-11 -1.7883754241477217e-11 1.8549779213849997e-11 0.00015902885364801281 37.763133124999982 163.12891490999996 154.67737105000003 1609.7391759139125 0.0000000000000000 0.0000000000000000 0.0000000000000000 0.0000000000000000 0.75280699481588254 0.18890563571942834 0.015800972103697415 0.12572594476508711 3935.1021048250486 0.12570190960087207 0.0000000000000000 
38.052447634116632 176.57855631018361 167.40098369164443 38.052447634116625 176.57855631018359 167.40098369164440 -2.7134544156701548 1.2629305369223581e-07 6.8405925284022472e-08 -6.1952372683086758e-07 -3.2900167946402967 -3.6491796129856091e-06 -2.5533073774730569e-07 -4.7283951785492821e-05 0.00012561892493849353 -6.4484863423200905e-12 -8.2667834882730528e-12 4.6819047161460400e-11 0.00012671225728762755 37.800763103000001 176.30222544999998 166.22815640000002 1278.4532315353756 0.0000000000000000 0.0000000000000000 0.0000000000000000 0.0000000000000000 0.75261315481128577 0.18880838572622888 0.015788774499324257 0.12569948846400333 3937.0950811584576 0.12565342126894727 0.0000000000000000 
29.537636133995811 163.90568761908497 176.40649811564987 29.537636133995814 163.90568761908500 176.40649811564984 -2.2894576781799949 1.4835339736192470e-07 7.9847479393953797e-08 -9.2013278067368437e-07 -2.1371313649015913 -3.1781880920344271e-06 -2.4406929163833802e-07 -4.9596631687298665e-05 8.9863901485318865e-05 6.6350305104222824e-12 1.2297280569703257e-11 -9.6477533735775029e-12 9.3533201278948506e-05 29.318435967000010 163.64154443000001 175.17630729999999 1176.2421003033126 0.0000000000000000 0.0000000000000000 0.0000000000000000 0.0000000000000000 0.75269481666393390 0.18884938704323426 0.015793921037448987 0.12569948846400320 3937.7864960471265 0.12567388236164748 0.0000000000000000 
45.610171546913747 139.62367392632353 176.81226529262531 45.610171546913755 139.62367392632356 176.81226529262528 -2.5462691000321938 -6.6138519300273401e-07 -4.2580294173330680e-07 -1.3050501250584364e-06 0.0000000000000000 -4.0672304236766266e-06 -2.2249164607912597e-07 -4.9700835574373325e-05 0.00010355789270773511 3.8613780739881723e-11 1.2570792494397146e-11 4.4459956863231122e-11 0.0000000000000000 45.329653981089926 139.38288308181924 175.57948981227980 1838.0408446142237 0.0000000000000000 0.0000000000000000 0.0000000000000000 0.0000000000000000 0.75307318004928414 0.18903919227667507 0.015817724843494089 0.12574020861828963 3934.6963691528626 0.12576852666477512 0.0000000000000000 
58.987045332126186 137.32310840919052 224.15969559408094 58.987045332126179 137.32310840919055 224.15969559408089 -1.4056256676466548 1.0924979699900253e-07 3.5825161012989566e-07 -3.8563268449266961e-07 -1.5152086338640274 -4.8071638979740863e-06 -2.2044729544590247e-07 -6.1859991082380272e-05 8.6193364716696263e-05 -5.1974334970409564e-12 -1.2985928518860560e-11 3.2150427469789126e-11 2.7097712410724669e-05 58.655494429999983 137.08453005000001 222.62532541000004 1283.0721019573000 0.0000000000000000 0.0000000000000000 0.0000000000000000 0.0000000000000000 0.75283270642631361 0.18891854570030128 0.015802592645784142 0.12569948846400314 3938.0859525360556 0.12570835502540714 0.0000000000000000 
37.589829449277502 150.51044637242256 220.16628557302676 37.589829449277495 150.51044637242259 220.16628557302676 -1.4177283793111208 2.5511797277971577e-07 1.7277550635868978e-07 -1.7667787615133023e-07 -1.5951643717385131 -3.6235901698655759e-06 -2.3216590908092810e-07 -6.0834455100022833e-05 7.7807026924943282e-05 1.1943117880488144e-11 -2.3147582354336828e-11 3.1108296090192977e-11 9.7341909100482328e-05 37.339909825999996 150.25918557000000 218.65735269999999 1388.6032526015726 0.0000000000000000 0.0000000000000000 0.0000000000000000 0.0000000000000000 0.75282929937023002 0.18891684782155102 0.015802381129281999 0.12569948846400325 3937.9449368071464 0.12570751859096910 0.0000000000000000 
59.443477988915546 159.03053833135618 204.94691408552012 59.443477988915554 159.03053833135618 204.94691408552009 -1.6213974329692264 3.3806159557131272e-07 -8.2636272638272579e-08 -7.3419300144176608e-08 -1.6547659494214473 -4.8324111875386652e-06 -2.3973710092094151e-07 -5.6926012672986260e-05 0.00013113976980574685 -6.9618936072346749e-11 1.4233331361760679e-11 9.8444972432451090e-12 8.6450365366325994e-05 59.110185776999977 158.77108363999997 203.53492589999999 1913.3477276736232 0.0000000000000000 0.0000000000000000 0.0000000000000000 0.0000000000000000 0.75258045078237390 0.18879198245189183 0.015786717668604337 0.12569948846400331 3939.5010911905897 0.12564524216809694 0.0000000000000000 
45.614443811098354 131.94078049857927 199.25311618551669 45.614443811098369 131.94078049857933 199.25311618551675 -1.5976569463997359 -3.2739199678111939e-07 -8.6136002582743982e-08 3.2578190908742226e-07 0.0000000000000000 -4.0674667355633529e-06 -2.1566440408515850e-07 -5.5463805039568456e-05 9.5033165008115417e-05 -1.8485468142128793e-11 4.3317864070651524e-12 -4.6873406116715156e-11 0.0000000000000000 45.333909946406948 131.70737839773392 197.87739647919071 1878.7089811415260 0.0000000000000000 0.0000000000000000 0.0000000000000000 0.0000000000000000 0.75273319736443856 0.18886866637563640 0.015796342120530119 0.12570289146336319 3939.1196353594132 0.12568351383694021 0.0000000000000000 
73.608693102554156 182.72564673109162 193.51414664180157 73.608693102554128 182.72564673109170 193.51414664180163 -2.2106812747987590 3.9567061724762496e-07 -2.6651436361712573e-07 8.2119705388352958e-08 -1.4575148481075073 -5.6159512814568649e-06 -2.6079320436522835e-07 -5.3989997008840877e-05 0.00024455595196354736 -1.8598572327490599e-10 4.8837330545205805e-11 -2.6298446842339253e-11 0.00021956710155159796 73.221359999000001 182.44340413000006 192.17498315000009 1916.8989385598338 0.0000000000000000 0.0000000000000000 0.0000000000000000 0.0000000000000000 0.75302283664071845 0.18901386092535069 0.015814538335202966 0.12573505236964880 3935.4512865427860 0.12575587694145099 0.0000000000000000 
82.666026252595202 141.83197480765642 210.95076407131512 82.666026252595202 141.83197480765645 210.95076407131509 -2.4022098779804568 3.3901248857325675e-07 2.8397744451729898e-07 -1.6529297406342925e-07 -1.7438679412577784 -6.1169520375603534e-06 -2.2445399988626815e-07 -5.8467843892129334e-05 0.00027024776292865633 -1.7038917414702763e-11 -9.6253234001337018e-11 6.1933435671216663e-11 0.00039532521819548634 82.244139041999972 141.58906020999996 209.50053243000002 2596.9063225776295 0.0000000000000000 0.0000000000000000 0.0000000000000000 0.0000000000000000 0.75280715368823070 0.18890573618716702 0.015800987312188815 0.12570895807688592 3937.3242097696784 0.12570198702101007 0.0000000000000000 
97.137716671355804 151.06297893475428 178.63822826889012 97.137716671355818 151.06297893475440 178.63822826889012 -3.7404978082082052 1.4707937797452473e-06 -1.9854138258980454e-07 -5.3572468138095251e-07 0.0000000000000000 -8.8491130626301009e-06 8.4627003543479267e-08 -5.0082494465878757e-05 0.00039583043229864340 -4.8250902714456037e-11 5.4180204984118821e-12 -3.0486794198752793e-11 0.0000000000000000 96.634805924592328 150.82018211309926 177.41298922508184 2674.5721001240636 0.0000000000000000 0.0000000000000000 0.0000000000000000 0.0000000000000000 0.75289661674313513 0.18895045259789928 0.015806574938522781 0.12570968012608219 3933.8499222689602 0.12572416982403958 0.0000000000000000 
110.74217622231085 161.07661727990450 196.02126163182629 110.74217622231082 161.07661727990453 196.02126163182615 -4.4136477889017112 1.0082055712422503e-06 1.3986112213220917e-07 -4.6635188493477591e-08 0.0000000000000000 -7.6699668703494872e-06 -2.4155529940173004e-07 -5.4633841892026691e-05 0.00039480129030133057 3.1438072672689137e-12 -3.1105043921179864e-11 1.7109409797146587e-11 0.0000000000000000 110.21317731831955 160.81519484644704 194.66612826377516 2907.4611518241991 0.0000000000000000 0.0000000000000000 0.0000000000000000 0.0000000000000000 0.75277246767279815 0.18888827983356907 0.015798791079892901 0.12568974500190006 3933.0608112411564 0.12569324065205734 0.0000000000000000 
69.206222343074174 138.01148743979434 192.14592188005705 69.206222343074174 138.01148743979425 192.14592188005705 -1.7171109975826733 4.2095376084641456e-07 -3.1596178196195032e-09 9.6259211285998840e-07 0.0000000000000000 -5.3724313378578073e-06 -2.2105900085445110e-07 -5.3638627196705979e-05 0.00023348068137187607 -2.1732087628348130e-10 7.8358399929769091e-11 -6.7027462034563414e-11 0.0000000000000000 68.835684850694804 137.77224705707783 190.81547373645992 2302.4579037184249 0.0000000000000000 0.0000000000000000 0.0000000000000000 0.0000000000000000 0.75340854497863896 0.18920751398129870 0.015838845201682609 0.12577363251603421 3934.3050389360187 0.12585247724252324 0.0000000000000000 
84.302256471131443 175.18297589517005 175.71785742885385 84.302256471131400 175.18297589516996 175.71785742885376 -3.0308238311269533 8.2256257304564919e-07 5.9507053253106072e-07 -4.4625618359101083e-07 0.0000000000000000 -8.3282475837765196e-06 6.2416191225299064e-08 -4.8984246208804162e-05 0.00035724093374760971 -1.3988359661462207e-10 -4.1316212439515449e-11 5.2811362767566991e-12 0.0000000000000000 83.849638243891135 174.91172786385235 174.51222656391082 1667.9065348682720 0.0000000000000000 0.0000000000000000 0.0000000000000000 0.0000000000000000 0.75305199562347991 0.18902860630922197 0.015816402398453267 0.12573400253497230 3934.0430162047987 0.12576327090939990 0.0000000000000000 
101.82801260474034 227.02847092287726 182.68586607187751 101.82801260474035 227.02847092287723 182.68586607187751 -4.6198562981072353 -5.6537890657129487e-07 4.5307288727334045e-07 9.7764001214898166e-08 -4.8594334649343276 -7.1768854277287647e-06 -3.0016190899484480e-07 -5.1209217851233557e-05 0.00038049331239029563 5.1390200413073288e-11 -4.0779124130082028e-11 3.1792885999112486e-11 0.00035324244774169119 101.33302161000000 226.70362169000003 181.41567680000000 527.87335979314730 0.0000000000000000 0.0000000000000000 0.0000000000000000 0.0000000000000000 0.75280505940692799 0.18890469433168983 0.015800857752453091 0.12569948846400320 3932.6718218835981 0.12570146170221899 0.0000000000000000 
109.77311155150028 213.15328273467875 193.39592925810877 109.77311155150028 213.15328273467870 193.39592925810874 -4.1986563413862079 1.6509333663162634e-07 2.3192412881218346e-08 -2.3414110584133831e-08 -3.9863054113446594 -7.6163636583137509e-06 -2.8783203379068034e-07 -5.3959637935141469e-05 0.00041025405885475975 -1.1506617546549110e-10 9.4977936100154178e-11 -3.4496190097770707e-12 0.00045404856045238364 109.24780967000000 212.84177746000000 192.05751878999999 1255.4436111582911 0.0000000000000000 0.0000000000000000 0.0000000000000000 0.0000000000000000 0.75277739663247700 0.18889082886802444 0.015799120306053814 0.12569948846400317 3933.9061311226665 0.12569455455796283 0.0000000000000000 
92.137311516930794 213.32773649312554 179.21355075276799 92.137311516930808 213.32773649312551 179.21355075276793 -4.4250724747733017 6.1643256706677663e-08 8.0300518627065333e-07 -9.1533283682463596e-07 0.0000000000000000 -6.6408503081594192e-06 -2.8798705187238477e-07 -5.0317502677754693e-05 0.00035290382090971570 -2.6560911385254435e-12 -1.1040289257032569e-10 6.3625520400617041e-11 0.0000000000000000 91.679290954562077 213.01606344388193 177.96547951144200 663.90724330950775 0.0000000000000000 0.0000000000000000 0.0000000000000000 0.0000000000000000 0.75278665377968901 0.18889538449218424 0.015799680545263026 0.12569935116422740 3933.4470618075675 0.12569678046280286 0.0000000000000000 
64.362856089307385 211.97079394833574 167.83957659001024 64.362856089307357 211.97079394833571 167.83957659001032 -4.2974839341893114 8.4506869245244551e-07 1.0941574895825360e-06 -6.9313889617098794e-07 0.0000000000000000 -5.7137993708505400e-06 -5.1807019274544917e-07 -4.6987561898087564e-05 0.00027335457274486788 -6.9612203250574764e-11 -1.0604994487720972e-10 1.8967052211476502e-11 0.0000000000000000 64.005185165032174 211.65254642520509 166.67194214610197 754.86350931875324 0.0000000000000000 0.0000000000000000 0.0000000000000000 0.0000000000000000 0.75286068384141336 0.18893250774991716 0.015804334533949253 0.12570479631884637 3932.9150586539877 0.12571528581220726 0.0000000000000000 
61.237430137941146 184.74213858920675 163.95158740929534 61.237430137941146 184.74213858920669 163.95158740929531 -3.2694507020548813 -3.4388527409088051e-08 5.1000561005873780e-08 -3.5867252750721231e-07 0.0000000000000000 -4.9316425389800411e-06 -2.6258510898991000e-07 -4.6398122376334339e-05 0.00023624925338035728 -7.5462605577966153e-11 9.6084399991496121e-12 3.5607693441265204e-11 0.0000000000000000 60.897293923099205 184.45795670032331 162.80073215801758 1456.3555990979894 0.0000000000000000 0.0000000000000000 0.0000000000000000 0.0000000000000000 0.75302599521013425 0.18901559285405126 0.015814774064585521 0.12573579409726507 3933.2983142037260 0.12575680284558421 0.0000000000000000 
88.730594611090424 196.33858096439650 139.91957338664457 88.730594611090467 196.33858096439658 139.91957338664454 -5.0420685158041101 1.8272321480779041e-07 7.4652627333504228e-07 -3.1793185524409138e-07 0.0000000000000000 -6.4524098742357863e-06 -2.7289003695640801e-07 -4.0226530917453214e-05 0.00038644352907700111 -4.8038600684480379e-11 1.5800825141937260e-11 9.2277883043739449e-12 0.0000000000000000 88.285570817050015 196.04324661832075 138.92179778727578 2284.4992455537940 0.0000000000000000 0.0000000000000000 0.0000000000000000 0.0000000000000000 0.75274569218270193 0.18887492712842671 0.015797126368285844 0.12568457935611108 3932.5148511100115 0.12568661740800821 0.0000000000000000 
82.246244484044126 174.74219153707386 154.87710253560863 82.246244484044141 174.74219153707386 154.87710253560863 -3.7841706662542971 3.9695668538645102e-07 1.7122964555555998e-07 -1.9388124345559313e-07 0.0000000000000000 -6.8685112474403693e-06 -3.2646859052767157e-07 -4.3760921430297623e-05 0.00037538436668574577 -5.3433524375752475e-11 1.1878951440380343e-11 2.5712195890283386e-11 0.0000000000000000 81.814121362732124 174.46733636348887 153.79871785113039 1849.3455604645501 0.0000000000000000 0.0000000000000000 0.0000000000000000 0.0000000000000000 0.75295427260091696 0.18897979143230498 0.015810306510773583 0.12572593148476502 3933.6123160167526 0.12573903510880055 0.0000000000000000 
77.024951771108618 237.80568863050550 172.68830828824326 77.024951771108604 237.80568863050547 172.68830828824323 -5.7502610179969960 2.1521456954952680e-07 -5.4499457101907534e-08 -6.1242326332994258e-07 -5.6018708539440993 -5.8049195013620816e-06 -3.0973882925167118e-07 -4.8641774182456299e-05 0.00036956332820853104 -2.4899833205099659e-11 2.9276631227659704e-12 -1.8346508635871777e-11 0.00037826678910150808 76.624585496999998 237.47047479999995 171.48180167999999 450.61312636181810 0.0000000000000000 0.0000000000000000 0.0000000000000000 0.0000000000000000 0.75284348011688529 0.18892407804862540 0.015803302514623495 0.12569948846400320 3930.3442480451704 0.12571118921448352 0.0000000000000000 
66.979755898217064 237.64375101288442 156.97939176599866 66.979755898217050 237.64375101288442 156.97939176599863 -6.4313582195319094 -1.5492239844899553e-08 -2.9579579522010102e-08 -6.1302072790348262e-07 -6.7202148802203832 -5.2492757323106183e-06 -3.0959493338422739e-07 -4.4607613154890042e-05 0.00034233013121138904 -7.3583686617805232e-12 1.3640801589950932e-12 -1.8934464709608616e-11 0.00034324005420772498 66.617712469000011 237.30869291999991 155.87294816000005 715.16986369778181 0.0000000000000000 0.0000000000000000 0.0000000000000000 0.0000000000000000 0.75274977338452564 0.18887684718624251 0.015797351191597704 0.12568683563370625 3929.4752898216102 0.12568751035915499 0.0000000000000000 
87.672838382524972 237.25583156544778 148.05494707174225 87.672838382525001 237.25583156544778 148.05494707174222 -6.3407856110109320 -2.7034549671781596e-07 -2.9949597170137368e-08 -3.2697609393071043e-07 -7.0451886241355197 -6.3939007435842576e-06 -3.0925021288224524e-07 -4.2315752523502941e-05 0.00035326132440939437 -1.2904731636297957e-11 -7.3242946196403643e-12 -1.9642453637840098e-11 0.00034870184893055539 87.231849972999981 236.92114653999997 147.00535059000001 1226.5804134212974 0.0000000000000000 0.0000000000000000 0.0000000000000000 0.0000000000000000 0.75279263147028230 0.18889844340594825 0.015800071736097487 0.12568844350931316 3929.2008730100374 0.12569833590471374 0.0000000000000000 
87.463597136235336 225.10411199582319 163.26490147290542 87.463597136235364 225.10411199582325 163.26490147290542 -5.5610684814947540 -3.2416788131544874e-07 4.5466131128441753e-07 -4.1068721656781298e-07 0.0000000000000000 -6.3823267003049189e-06 -2.9845186830246279e-07 -4.6221776556831788e-05 0.00037079865702493916 6.1624899031156282e-13 -3.3341601131364506e-11 -2.3205378626905000e-11 0.0000000000000000 87.023406990868523 224.78111344523825 162.11842028882040 681.06850806740897 0.0000000000000000 0.0000000000000000 0.0000000000000000 0.0000000000000000 0.75273982096981884 0.18887181864950262 0.015796716032963436 0.12568829648732965 3931.6375610077121 0.12568498641935846 0.0000000000000000 
87.260587006056497 196.76781458763085 187.07735964510408 87.260587006056525 196.76781458763082 187.07735964510405 -3.3806760120386863 4.7853624128313550e-07 -1.8934154467231021e-07 -2.6529337106038367e-07 0.0000000000000000 -6.3710973200459256e-06 -2.7327146800981694e-07 -5.2336984497525212e-05 0.00034840870264977596 -1.6973988007534761e-10 1.6635014296518170e-10 1.0449845263126860e-11 0.0000000000000000 86.821171352877627 196.47206744171046 185.77919734079927 1095.9217422697654 0.0000000000000000 0.0000000000000000 0.0000000000000000 0.0000000000000000 0.75287003134067509 0.18893722658783754 0.015804930080507602 0.12571289839109212 3934.8330219164718 0.12571765651514122 0.0000000000000000 
30.241879685775839 214.76083092575442 131.85038109066463 30.241879685775839 214.76083092575439 131.85038109066463 -4.3791626203775627 4.3655261642239528e-08 3.2982012335712603e-07 3.0428987698922506e-08 -4.7194622395213086 -3.2171428873685469e-06 -2.8926054809752522e-07 -3.8154305189219695e-05 0.00023203695265320299 -7.4944960847806625e-12 -3.3054424388736727e-11 -1.1372803674497062e-11 0.00024970916899590156 30.019992800000004 214.44777965000000 130.90400481000003 1639.8558849024062 0.0000000000000000 0.0000000000000000 0.0000000000000000 0.0000000000000000 0.75280034380355076 0.18890233230876574 0.015800561973962551 0.12569948846400336 3933.2725213307181 0.12570028565404925 0.0000000000000000 