# For a description of the Tecplot format see the Tecplot User's guide.
#
Variables=x,y,z,s_u,s_v,s_w,s_p,mono_f_vel_u,mono_f_vel_v,mono_f_vel_w,const,u_nu,v_nu,w_nu,p_nu,x_nu,y_nu,z_nu,const,u_ref,v_ref,w_ref,vol_ref,x_ref,y_ref,z_ref,const,I1,I2,I3,J,p1,p2,p3
Zone f=fepoint, n=1339, e=6475, et=brick, c=black
-58.9419 -70.4410 175.923 -58.941855174459235 -70.440961716062944 175.92340366559350 -80.256827090022298 8.7329405340557029e-09 -1.8001751879537541e-07 7.4353238112920990e-07 -80.880463735676813 5.8293542631870920e-09 -3.0201910417027023e-10 6.4501727603527570e-07 0.00026668200379424684 -3.1107906531022550e-13 3.5385445430030521e-13 -2.1183338453956947e-12 0.00026734217583274263 -58.668039002000000 -70.473359259200009 176.35421013599998 215.13583165143561 0.0000000000000000 0.0000000000000000 0.0000000000000000 0.0000000000000000 3.0479980368355872 3.0965321183617434 1.0485358191337688 1.0236539769072013 323.97181316679195 323.97051296797360 1.0239808783646684 
-65.261854712930855 -76.400127622760877 183.72077213883586 -65.261854712930841 -76.400127622760891 183.72077213883586 -83.782749591647587 -2.2301836130599106e-06 -3.3960364834913503e-06 3.6185876250643634e-06 -83.807978348887929 6.3597780514124125e-09 -1.3572531987193770e-10 4.5476549104250807e-07 0.00027029249415218639 5.0370402732984179e-12 1.8217928089512930e-12 -6.6395815059044644e-12 0.00027373905831282452 -64.963123215600007 -76.414687385200040 184.02450960799996 253.42820447565578 0.0000000000000000 0.0000000000000000 0.0000000000000000 0.0000000000000000 3.0488332857996152 3.0982288499159347 1.0493974615545749 1.0236539769072028 333.17046289547881 333.17413881690720 1.0244021848300484 
-69.980928102202540 -71.555083634348264 176.82048501006420 -69.980928102202554 -71.555083634348279 176.82048501006420 -81.259318494808269 -1.7502963123422085e-06 -5.5858838125747941e-07 2.3751602437082465e-07 -82.876768135742992 6.7558529465161499e-09 -2.7092547649765203e-10 6.2312895066085627e-07 0.00026728999443333888 3.4376061892620564e-12 1.5442259511785668e-12 -1.2840864738168831e-12 0.00026887180457691297 -69.663592608799988 -71.584146237200002 177.23667228800005 218.29881668600640 0.0000000000000000 0.0000000000000000 0.0000000000000000 0.0000000000000000 3.0492777275985650 3.0991243110384663 1.0498485109372708 1.0236539769072024 330.44524757010896 330.44678275998064 1.0246228025463733 
-57.432872594856562 -87.746177089761261 171.16244581676881 -57.432872594856519 -87.746177089761218 171.16244581676889 -75.815162687674160 -2.3913210216990129e-06 3.6053297443106759e-06 8.9841544661239930e-06 0.0000000000000000 5.7027115113461599e-09 1.8087517594800320e-10 7.6118220659893165e-07 0.00026314207238907315 4.1298758992838020e-12 -6.9939828894488025e-12 -5.0713207003669417e-12 0.0000000000000000 -57.165005282198301 -87.726774323660578 171.67083873969227 259.76550921814646 0.0000000000000000 0.0000000000000000 0.0000000000000000 0.0000000000000000 3.0440505486621738 3.0885124798291494 1.0444628624926555 1.0223853345928495 301.70294453965465 301.70516303141193 1.0219888279629570 
-89.291809484585201 -83.384268490197442 115.70070077739736 -89.291809484585215 -83.384268490197442 115.70070077739732 -68.712504463234097 -4.0036511438059826e-07 6.1456275641989110e-06 -2.9400776725372395e-06 0.0000000000000000 8.3765831077053932e-09 5.9154625642321434e-11 2.1144202810852168e-06 0.00026769466858763682 -1.7197307614007364e-12 -1.3895263972443231e-11 4.1640368836102966e-12 0.0000000000000000 -88.898344731952406 -83.377922378373768 117.11292023788836 283.91631954144174 0.0000000000000000 0.0000000000000000 0.0000000000000000 0.0000000000000000 3.0443184167739421 3.0889989575783021 1.0446812174628024 1.0224767034007252 289.21537106789498 289.21682025415157 1.0220960506807619 
-98.023580789788042 -66.858579820058182 106.66061106615763 -98.023580789788056 -66.858579820058168 106.66061106615759 -78.983453384126534 9.0955814626084652e-08 2.1916529605608715e-06 -1.2629077611574830e-05 -80.833054839813443 9.1094316118089952e-09 -4.0198752659925679e-10 2.3349938294003896e-06 0.00028459107976423303 -3.0977057803062725e-12 -3.2601007758834905e-12 1.8050051800418524e-11 0.00028369829213489422 -97.595692787999965 -66.901700632800015 108.22015140479995 322.25788568967050 0.0000000000000000 0.0000000000000000 0.0000000000000000 0.0000000000000000 3.0486714601507576 3.0979172282329723 1.0492477285762634 1.0236539769072008 323.94623188867632 323.94955017699078 1.0243289703417067 
-80.019443159908235 -67.490220068340662 107.06248354386194 -80.019443159908192 -67.490220068340690 107.06248354386192 -77.334214626575161 -3.1551490165400792e-06 2.9694845876994542e-06 -5.7259660013602623e-06 0.0000000000000000 7.5983720010386335e-09 -3.8436120952667352e-10 2.3251883489727732e-06 0.00028181392099317615 8.6100403324428352e-12 -4.5444997618999521e-12 1.4099351004085995e-11 0.0000000000000000 -79.662532843379708 -67.531450170133141 108.61547480962874 295.38956150422752 0.0000000000000000 0.0000000000000000 0.0000000000000000 0.0000000000000000 3.0456016414984171 3.0916599431747609 1.0460595777871378 1.0228370165678002 309.97543977834897 309.97649626200206 1.0227697389081956 
-94.893335522483497 -81.841230831687540 107.07349642091000 -94.893335522483525 -81.841230831687483 107.07349642091002 -75.908825725426112 -4.5582152583386361e-06 4.0010264673078548e-06 -9.4645657351508285e-06 0.0000000000000000 8.8467246445178560e-09 1.6099316324513779e-11 2.3249196372532310e-06 0.00028378595467351737 1.3897667507630041e-11 -2.8198469340395495e-12 2.1831665978833514e-11 0.0000000000000000 -94.477787882002133 -81.839503548705352 108.62630821647583 293.80807890400462 0.0000000000000000 0.0000000000000000 0.0000000000000000 0.0000000000000000 3.0455726614643193 3.0915774314507307 1.0460059022328361 1.0228063261918998 305.33339067610069 305.32800290874280 1.0227434264365689 
-47.553996877648913 -126.08654153859787 137.64709597062807 -47.553996877648899 -126.08654153859787 137.64709597062807 -38.040055036554428 3.6074782281995197e-07 2.5408597747606683e-06 7.7366901112180832e-06 0.0000000000000000 1.2997145776150727e-07 -4.0154874542044366e-08 1.5483092652074912e-06 0.00022296256957526331 -1.2759399889406523e-12 -4.4234699222948123e-12 -6.7823108325589712e-12 0.0000000000000000 -47.292355390977058 -125.96433165720771 138.67232254046354 244.31333887135355 0.0000000000000000 0.0000000000000000 0.0000000000000000 0.0000000000000000 3.0518857435377913 3.1044921881039369 1.0526094247261311 1.0261133094825126 265.22063052023873 265.22118528967712 1.0259674894951727 
-34.386798881474412 -140.61486509070156 138.17562908946795 -34.386798881474412 -140.61486509070161 138.17562908946786 -37.945215729835908 4.4108571359254221e-06 -6.2994049754950166e-07 3.8417240504333435e-06 0.0000000000000000 5.1032179487969491e-08 1.4193213465860222e-08 1.5671917085278508e-06 0.00022085640654459675 -1.5811167053513855e-11 5.1985915889169374e-12 1.4670107230744480e-12 0.0000000000000000 -34.196989160350306 -140.43319657724166 139.21506628885933 210.16870282748488 0.0000000000000000 0.0000000000000000 0.0000000000000000 0.0000000000000000 3.0510395852514041 3.1027547817358094 1.0517177398457631 1.0255597757755262 262.32904822457380 262.32865599445699 1.0255331697304728 
-31.112333801788420 -127.78037454567495 141.74078292425304 -31.112333801788409 -127.78037454567496 141.74078292425295 -42.302703055077536 3.1382710139054057e-06 1.4361536718172007e-06 7.8998703702826484e-06 0.0000000000000000 3.4936580989297643e-09 1.2980261587802744e-09 1.4790556632782172e-06 0.00022442965657828469 -7.7059858128334224e-12 -2.3618698014253499e-12 4.8036853403087657e-13 0.0000000000000000 -30.948229910445860 -127.64113600963313 142.72864290474456 229.21992526850030 0.0000000000000000 0.0000000000000000 0.0000000000000000 0.0000000000000000 3.0495657612933549 3.0997447402177909 1.0501811462961834 1.0249652726540830 264.56979487622107 264.56987975511032 1.0247832336450671 
-48.670567788929667 -131.04316297504488 145.96291555108093 -48.670567788929688 -131.04316297504479 145.96291555108098 -39.181773593901667 3.0332093012485006e-06 8.5657938192310095e-06 -2.4525118774743842e-06 0.0000000000000000 1.1966731518355872e-07 -3.9469067260999351e-08 1.3532920985233200e-06 0.00022060096921040889 -6.3677300119407176e-12 -2.4835746669974641e-11 9.8413076880460920e-12 0.0000000000000000 -48.406431667502837 -130.90513559487593 146.85896726379221 225.63426853136377 0.0000000000000000 0.0000000000000000 0.0000000000000000 0.0000000000000000 3.0524059084556727 3.1055343698399671 1.0531313630534918 1.0260750269624299 266.92936174178772 266.92691420422517 1.0262218615262706 
-53.261954193644968 -84.920811251456769 75.588116254401129 -53.261954193644968 -84.920811251456797 75.588116254401086 -74.457285167501837 -2.3542786623239197e-06 2.3318842593206944e-05 -4.4030487203447721e-05 0.0000000000000000 1.2070289660226765e-08 -3.4484341993702922e-08 3.3339568045135618e-06 0.00035335472995707726 1.7071528077716487e-11 1.5863466327043296e-10 7.4064420429610190e-11 0.0000000000000000 -53.009977022357148 -84.940192361847963 77.707205907375524 356.07450292316213 0.0000000000000000 0.0000000000000000 0.0000000000000000 0.0000000000000000 3.0467828091526505 3.0940436344176021 1.0472620141892053 1.0233604159052048 296.24862325377376 296.26859856839906 1.0233554335468424 
-40.512214535730244 -85.656754673707681 65.230309695523871 -40.512214535730230 -85.656754673707695 65.230309695523843 -102.27165088094323 6.8166443835072983e-08 6.8228395055151965e-06 -2.3634454638963359e-05 0.0000000000000000 7.8904696733307961e-09 -2.2998296642349689e-08 3.4413935741991569e-06 0.00036177305270929854 1.9718748895930516e-11 7.8472719770207153e-12 -3.0232796573862030e-11 0.0000000000000000 -40.313282635619565 -85.652866469445740 67.489144002613742 334.72004880612383 0.0000000000000000 0.0000000000000000 0.0000000000000000 0.0000000000000000 3.0446744790432478 3.0898271476752357 1.0451541081310973 1.0228012549304966 350.53381384358306 350.53592406230001 1.0223270023906854 
-43.131687832253924 -94.084120933116395 81.261073437991683 -43.131687832253903 -94.084120933116395 81.261073437991641 -63.760170622806790 2.3896165974107521e-05 5.6965679728732800e-06 -1.8911015786750700e-05 0.0000000000000000 -4.2939608642085916e-09 -6.3806513187209267e-08 3.1754005659869873e-06 0.00032423444328756547 5.6328281276892452e-11 1.4960692129283100e-11 1.7534634020871631e-10 0.0000000000000000 -42.930125987095458 -94.071309017270835 83.274511392489799 283.94561953274422 0.0000000000000000 0.0000000000000000 0.0000000000000000 0.0000000000000000 3.0477881858332410 3.0961021271173212 1.0483155031080615 1.0235241360226539 286.43236838690785 286.43170828156502 1.0238719935713751 
-45.165842323821671 -99.022874828145305 65.789975411964249 -45.165842323821678 -99.022874828145305 65.789975411964221 -85.992828357787502 1.6953435833162205e-05 1.1935184418816510e-05 -3.5764107714922992e-05 0.0000000000000000 4.6731487429729768e-09 4.9555884396035310e-10 3.3322163472959687e-06 0.00035220396935917012 -6.0294904830191905e-11 -4.9692881351653924e-11 -1.0878899664060705e-10 0.0000000000000000 -44.946335306532468 -98.969717126470769 68.015559797458934 339.42980011114588 0.0000000000000000 0.0000000000000000 0.0000000000000000 0.0000000000000000 3.0470896655635893 3.0947421452629826 1.0476544851127869 1.0233697806476452 324.27046820956838 324.23370038976640 1.0235488407088196 
-35.841620560345639 -100.88193892684893 73.235383735504712 -35.841620560345639 -100.88193892684892 73.235383735504698 -80.545155619558301 1.3092910889815370e-05 8.0736964523595051e-06 -1.7795246321528372e-05 0.0000000000000000 -1.5039022356067313e-08 -3.6905756521095868e-08 3.2561189494546484e-06 0.00033907799502451105 3.6499281634301612e-11 -4.8656317989986356e-11 3.9458610011047499e-11 0.0000000000000000 -35.672109309640206 -100.83293553867907 75.360366609178811 338.44965823895870 0.0000000000000000 0.0000000000000000 0.0000000000000000 0.0000000000000000 3.0437112345075885 3.0878762644314950 1.0441663878542817 1.0226805394257470 308.74575832354645 308.74899764492125 1.0218442715874334 
-49.211248274811211 -112.08433181180889 63.113948988647508 -49.211248274811211 -112.08433181180887 63.113948988647508 -76.943621404474882 2.4742464704339081e-05 9.4332678924909335e-06 -2.1677097003024624e-05 -66.753666747868493 5.0126763989633005e-09 8.6003079657892566e-10 3.3975100208749613e-06 0.00032105211289520935 -6.4088766902109405e-11 3.7503615096708102e-11 2.7692017546075626e-11 0.00031203943301510181 -48.975793059600008 -111.99207679200002 65.383142959360015 326.57209562220959 0.0000000000000000 0.0000000000000000 0.0000000000000000 0.0000000000000000 3.0473597626448528 3.0952204530077601 1.0478621468337290 1.0235675994620783 310.87256473810078 310.85207914936757 1.0236501912753613 
-25.381046302961071 -110.56959223719480 65.235028339232315 -25.381046302961071 -110.56959223719473 65.235028339232286 -95.286460887226553 4.5854209427744542e-06 5.0105395088897127e-06 -2.0422933116326258e-05 0.0000000000000000 3.0126387773332648e-09 8.1775716753718086e-10 3.3457567765182716e-06 0.00033639111727989474 -5.5516254789284795e-12 -2.5323133502004713e-11 1.1226358686718277e-11 0.0000000000000000 -25.239536857883341 -110.48187134057846 67.469656361758609 349.35568362690350 0.0000000000000000 0.0000000000000000 0.0000000000000000 0.0000000000000000 3.0458668446688075 3.0922288458150184 1.0463635429949503 1.0230848356055804 343.34574171606795 343.34895369974203 1.0229186572827980 
-44.291914480603630 -111.35868447868789 74.366585474863484 -44.291914480603644 -111.35868447868782 74.366585474863527 -65.397926125264092 1.3187901626295401e-05 -1.1176529468007850e-05 -1.1286986439695068e-05 0.0000000000000000 4.5998048564532823e-09 8.3978099474357748e-10 3.1229514689812277e-06 0.00030737740977369578 -3.4905010427866779e-11 -5.8595263872575211e-12 6.1795501224074365e-11 0.0000000000000000 -44.075852747763513 -111.26860156453857 76.452402029906395 268.59635586333832 0.0000000000000000 0.0000000000000000 0.0000000000000000 0.0000000000000000 3.0488127113724306 3.0982281188962206 1.0494175869642783 1.0234207389619532 297.68986604245043 297.70424030642067 1.0244111397839089 
-58.563736911366178 -106.65280634977699 103.71975999459956 -58.563736911366213 -106.65280634977702 103.71975999459951 -32.426732597315329 4.4880555401536420e-06 1.7198261764904261e-05 -2.3213899903337186e-07 0.0000000000000000 1.4558228783364185e-07 -1.4256208474696822e-07 2.5255832622479004e-06 0.00023658353681598016 -1.7878008273107051e-11 -5.5915514791170682e-11 1.6529837978360613e-11 0.0000000000000000 -58.254647241440821 -106.62760994408018 105.33920711112118 241.62621693813244 0.0000000000000000 0.0000000000000000 0.0000000000000000 0.0000000000000000 3.0547477469960422 3.1102708562229533 1.0555264015888701 1.0270900144941379 262.27564253609967 262.27046617443835 1.0273879630245129 
-64.707084362630937 -90.060017310491517 94.900716976580483 -64.707084362630908 -90.060017310491517 94.900716976580483 -52.045164409876755 -8.4052020401671859e-06 4.9406503221496241e-06 1.3278648059447142e-05 0.0000000000000000 1.3512536507336212e-07 -1.7783065098754322e-07 2.8151667775521158e-06 0.00026847981383988417 3.5832618697543807e-11 -2.1266740117973097e-11 -3.7997042816288935e-11 0.0000000000000000 -64.370648572599308 -90.090304358695661 96.688480747766732 239.98138923263960 0.0000000000000000 0.0000000000000000 0.0000000000000000 0.0000000000000000 3.0503806134977136 3.1013509199766691 1.0509719474558767 1.0242475750320295 276.11871948577874 276.11493934251007 1.0251671809422147 
-76.306306397102375 -99.715401439582166 99.624080759117192 -76.306306397102347 -99.715401439582223 99.624080759117120 -47.526627948351937 -1.4406549868305264e-05 1.6970159150061380e-05 -3.7473188368038832e-06 0.0000000000000000 1.8003971705550882e-07 -1.1694288067677359e-07 2.6527710096099493e-06 0.00026512071866772254 5.7541484620510460e-11 -5.9111301810993306e-11 2.4301704019837860e-11 0.0000000000000000 -75.913673002404863 -99.702254402691466 101.32606574872912 288.13617662859207 0.0000000000000000 0.0000000000000000 0.0000000000000000 0.0000000000000000 3.0517322848729118 3.1041205875566327 1.0523906356878348 1.0251740690818412 274.80609225081366 274.83478221796292 1.0258619457817699 
-55.457596171456458 -93.568966077799146 101.66318308955236 -55.457596171456466 -93.568966077799189 101.66318308955232 -48.449376948767593 -6.6142587105621151e-07 8.8599793881755764e-06 5.1207200386268417e-06 0.0000000000000000 1.2124976352360474e-07 -1.6738162751194473e-07 2.6157330286448239e-06 0.00025801141867973931 9.4108405077243485e-12 -1.5156831433746425e-11 2.3507060078068586e-12 0.0000000000000000 -55.164710769962618 -93.586508083202432 103.32606452766413 222.68531933077850 0.0000000000000000 0.0000000000000000 0.0000000000000000 0.0000000000000000 3.0506533816878463 3.1018761315442864 1.0512244166419469 1.0251449069569341 280.46491188634604 280.46439159799201 1.0252925827023491 
-45.985516238796322 -176.17991987926877 154.87534104764933 -45.985516238796308 -176.17991987926874 154.87534104764930 -40.302708093207855 -7.5943135415671684e-06 -8.9839174601845421e-06 1.7461362674992337e-05 0.0000000000000000 4.7419456278285921e-09 2.6485892090644114e-09 1.1585791761525854e-06 0.00021650155155092835 1.2350967839922288e-11 2.3908367153158810e-11 -1.9122824992535173e-11 0.0000000000000000 -45.762777822239421 -175.89580528354742 155.64915507299250 248.91339099022119 0.0000000000000000 0.0000000000000000 0.0000000000000000 0.0000000000000000 3.0508627809390467 3.1023114357683288 1.0514505424850629 1.0248407309894960 257.25338282624119 257.24905459758725 1.0254021199431909 
-51.680685927231046 -185.87594947781167 167.58705501414920 -51.680685927231032 -185.87594947781167 167.58705501414920 -45.035886123755610 5.8960117653361897e-07 -9.9041693289184108e-07 -6.2846823384812494e-07 -47.126345371596763 5.2199325556445678e-09 2.9191766504066403e-09 8.4841990544148871e-07 0.00021813038203358215 -2.0278356753839135e-12 3.4195219156294656e-12 4.2393659314141568e-12 0.00022028192279877082 -51.435495451599998 -185.56281141599996 168.15371392000000 294.81703600272857 0.0000000000000000 0.0000000000000000 0.0000000000000000 0.0000000000000000 3.0469596473879865 3.0944270818243851 1.0474690217670926 1.0236768805666925 257.52742425073978 257.52760345528895 1.0234595857998239 
-42.885321084546106 -171.44956761127287 165.67342101236275 -42.885321084546121 -171.44956761127287 165.67342101236275 -43.914364604969379 1.1743669024198022e-06 -1.2169639731977153e-06 4.7276945170925426e-06 0.0000000000000000 9.5883183716239597e-09 -1.6729815580677857e-08 8.9481478303695365e-07 0.00021936781905423236 -5.1651731978959196e-12 -3.8145495420016880e-12 -1.0473966245372420e-12 0.0000000000000000 -42.672974891599750 -171.18173466392949 166.26923354793541 271.88244999766295 0.0000000000000000 0.0000000000000000 0.0000000000000000 0.0000000000000000 3.0474814768749217 3.0954884035588601 1.0480086182492554 1.0239078535150474 256.16364232703813 256.16393322644211 1.0237229909916825 
-59.659379789793562 -178.30786765364243 157.01161561235409 -59.659379789793554 -178.30786765364243 157.01161561235406 -47.361282343624666 -4.8374807243539715e-06 -1.6040706674779526e-06 -5.0588290694541046e-07 0.0000000000000000 5.8895764515343166e-09 2.7079860298595552e-09 1.1064551839190526e-06 0.00022349465739012798 1.1641375565078283e-11 3.0850927436620998e-12 4.3577167683257622e-13 0.0000000000000000 -59.382734921100123 -178.01738339707751 157.75061606229067 243.94852352315442 0.0000000000000000 0.0000000000000000 0.0000000000000000 0.0000000000000000 3.0472612373893027 3.0950223143383884 1.0477625628993481 1.0238663304824209 261.77889923028374 261.78009433007907 1.0236029411432712 
-30.826063915454359 -102.77256087806917 93.529949906526269 -30.826063915454366 -102.77256087806923 93.529949906526312 -42.846301408067916 6.7809276175885501e-06 1.2142553226361262e-05 -2.9943755736049313e-05 0.0000000000000000 -4.6146272545947977e-10 -3.3497152599689719e-08 2.7765364534532761e-06 0.00027871558249921788 -6.5823245339953839e-11 7.5236261752538442e-11 1.7308445016504648e-11 0.0000000000000000 -30.660097366607719 -102.72526557899965 95.328291536857705 204.58703120518373 0.0000000000000000 0.0000000000000000 0.0000000000000000 0.0000000000000000 3.0505823699604933 3.1017219530103879 1.0511410827166516 1.0249361652777129 263.72492351292630 263.72466140908426 1.0252512710578390 
-18.920260648976672 -110.99494525205525 91.548218787013170 -18.920260648976679 -110.99494525205532 91.548218787013127 -57.811577875771768 1.1523123293097982e-05 1.2397820505754010e-06 -2.5809045794246670e-05 0.0000000000000000 2.4703900036726623e-09 8.2963289016468888e-10 2.7037284384690001e-06 0.00029254221729809051 3.7641904285330833e-11 -4.4873979388398004e-12 -1.5757341048405200e-11 0.0000000000000000 -18.804221549666405 -110.90595113131390 93.354036648627854 267.24800799435923 0.0000000000000000 0.0000000000000000 0.0000000000000000 0.0000000000000000 3.0470906349317910 3.0946626972157492 1.0475734449044933 1.0237309261452900 284.25262254072663 284.25252715066648 1.0235109264151065 
-33.981436941040826 -104.77227916784922 83.028422538454365 -33.981436941040812 -104.77227916784929 83.028422538454365 -61.751103358681100 1.1279088726717920e-05 -1.1477126083332704e-06 -2.1397921382794309e-05 0.0000000000000000 -3.6561829276112520e-08 -2.5229223640981743e-08 3.0618617308157001e-06 0.00029362258004372860 -4.9780144021550317e-11 1.1814950638388073e-12 7.2869699307836254e-12 0.0000000000000000 -33.815892125380543 -104.71065599625929 85.007910193808286 270.69679205096202 0.0000000000000000 0.0000000000000000 0.0000000000000000 0.0000000000000000 3.0452293579591170 3.0909529726779303 1.0457251710650166 1.0232111936141444 281.06445543254063 281.06445829387280 1.0226057901348684 
-19.037685746377246 -100.43707201132337 93.626108247372116 -19.037685746377242 -100.43707201132337 93.626108247372088 -51.419775693129878 4.0204158814422681e-06 -6.2536956547311989e-07 -7.3306490931397416e-06 0.0000000000000000 2.4802470910412215e-09 5.3501794661237057e-10 2.6530290062609652e-06 0.00027233706681749928 1.8655482256398104e-11 2.6877457242720946e-11 1.2094145321016550e-11 0.0000000000000000 -18.921183722278450 -100.37968114352928 95.398064000337470 185.31956687594098 0.0000000000000000 0.0000000000000000 0.0000000000000000 0.0000000000000000 3.0479630500211314 3.0964125418566795 1.0484508564079926 1.0238311752311218 274.51711813745862 274.51713484469576 1.0239398224998693 
-31.284660052484011 -118.07931664969519 172.74659568151097 -31.284660052484011 -118.07931664969513 172.74659568151097 -56.574519925382269 1.1750602115650966e-05 1.1671244323972035e-05 5.9783331241629381e-06 0.0000000000000000 -1.9833328274839023e-09 -2.8762902037813923e-08 6.6404140052137700e-07 0.00025192109003275724 -1.9106000534075832e-11 -1.6006433285183994e-11 -1.4208123668051680e-11 0.0000000000000000 -31.124431206993112 -117.97934695114738 173.21200361760444 258.17126679857051 0.0000000000000000 0.0000000000000000 0.0000000000000000 0.0000000000000000 3.0477918269281621 3.0960911632168453 1.0483007755977782 1.0240334762870971 279.88307578259622 279.88315611997103 1.0238657162371760 
-30.805672445424051 -133.28406393643297 164.19415555817159 -30.805672445424072 -133.28406393643306 164.19415555817159 -47.250175639910111 1.0254637930850210e-05 1.3490516878149783e-07 5.1145483447927131e-07 0.0000000000000000 1.3431941930513213e-08 -2.0902635543436409e-08 9.0531495006232602e-07 0.00023025243694801674 -2.1145412407131632e-11 -5.6852711328665134e-12 -1.7530610888246591e-12 0.0000000000000000 -30.642131568542830 -133.13454878399213 164.80820313575899 262.24283076768535 0.0000000000000000 0.0000000000000000 0.0000000000000000 0.0000000000000000 3.0490307309010563 3.0986330892427718 1.0496042693996364 1.0246301979495367 268.97116125484195 268.97114882476558 1.0245017322248919 
-42.895495352353429 -120.19631776554107 163.09737877936800 -42.895495352353436 -120.19631776554112 163.09737877936811 -41.212992406895310 1.7317517543924516e-05 1.0286833957132909e-05 5.3203365233204090e-06 0.0000000000000000 4.1130573060600270e-08 -8.0066887699291672e-08 8.5522337151808458e-07 0.00023192636455804269 -3.6044567285617031e-11 -2.8378931544173267e-11 -4.5158035561138220e-11 0.0000000000000000 -42.676694985445003 -120.10595080876966 163.70375490782192 268.28772502602959 0.0000000000000000 0.0000000000000000 0.0000000000000000 0.0000000000000000 3.0536743708256462 3.1080707096520168 1.0543991146775893 1.0260723208461318 268.05224358507354 268.05221906282617 1.0268393765312316 
-23.882926738895971 -114.33295335532694 161.14106622332613 -23.882926738895975 -114.33295335532694 161.14106622332622 -56.638642836388179 5.6134970454320833e-06 4.2876803739968302e-06 6.2722855020792562e-06 0.0000000000000000 2.8869003576570407e-09 9.2277577246058229e-10 1.0056987238549200e-06 0.00024164834562422378 -1.3110262103503383e-11 -9.9692656515073088e-12 -7.8935493195260039e-12 0.0000000000000000 -23.747323328369049 -114.23396745764113 161.81277151251504 321.01516800445251 0.0000000000000000 0.0000000000000000 0.0000000000000000 0.0000000000000000 3.0469120511195071 3.0943208276404128 1.0474102061144963 1.0237677091475077 279.27120434174384 279.27119098169999 1.0234310344808977 
-6.5306435185459639 -105.05877794656460 107.79037013324222 -6.5306435185459613 -105.05877794656459 107.79037013324226 -32.586389191837227 5.6630370536066597e-07 -1.9804457227156208e-07 -1.4707147735955287e-05 -26.452166758648886 1.4305463133523766e-09 6.6398023190750166e-10 2.3074282977653127e-06 0.00021389163120533644 -1.1801440853736121e-12 -4.3209895796636524e-13 3.9700864582453093e-11 0.00020042334733320208 -6.4634479885999987 -104.98755276399999 109.33149947120000 327.67017865987640 0.0000000000000000 0.0000000000000000 0.0000000000000000 0.0000000000000000 3.0473673688321536 3.0952592104889978 1.0478935039420052 1.0238653630114805 231.89115930961989 231.89115897184877 1.0236668779431106 
-11.895182578379977 -97.164475429053937 99.765782135948996 -11.895182578379975 -97.164475429053937 99.765782135948982 -46.768808724620200 -1.3810958059730235e-06 -5.9133348644938166e-07 -1.6270518789314762e-05 -44.298569772905054 1.8807856036473503e-09 4.4368866913835348e-10 2.5032241097733277e-06 0.00025137594761766530 3.6776442147630269e-12 -4.8009778250276043e-12 2.7560642569156906e-11 0.00024883660233054970 -11.806838433999999 -97.116880539599975 101.43768333439998 212.90238721710071 0.0000000000000000 0.0000000000000000 0.0000000000000000 0.0000000000000000 3.0470556865139744 3.0946129106797491 1.0475587787870388 1.0236539769072011 259.82913218992746 259.82911785625708 1.0235032702426954 
-15.953949655258260 -110.44745809987164 101.45302139865564 -15.953949655258265 -110.44745809987167 101.45302139865565 -41.074687349888926 6.9307137100362890e-06 -6.3951755676073916e-07 -3.0535249238326997e-05 0.0000000000000000 2.2214327460856605e-09 8.1435855281419823e-10 2.4620563428001678e-06 0.00023928455780175499 -2.9166624380691741e-11 5.2068149775709490e-12 6.3934739906729352e-11 0.0000000000000000 -15.849604639409371 -110.36010279166017 103.09742667861765 236.22178992679409 0.0000000000000000 0.0000000000000000 0.0000000000000000 0.0000000000000000 3.0470057509144861 3.0945293467043764 1.0475252242366651 1.0238625941635258 251.86480518902351 251.86482054502440 1.0234869139743665 
-23.885190991276207 -99.589064958545819 100.62393046338730 -23.885190991276207 -99.589064958545819 100.62393046338730 -41.215163887802326 7.9473151897470052e-06 1.3424155419266750e-05 -1.9664385797446866e-05 0.0000000000000000 2.8870920654178182e-09 5.1135726208961785e-10 2.4822857382922341e-06 0.00024378321305197146 -1.2100150598419662e-11 -4.0670431549557322e-11 4.9910974027052217e-11 0.0000000000000000 -23.749578654390465 -99.534212460059550 102.28184693721489 211.57004919854941 0.0000000000000000 0.0000000000000000 0.0000000000000000 0.0000000000000000 3.0484526789776960 3.0974685844085510 1.0490176590078082 1.0243185324090764 255.41256345921929 255.41256182362386 1.0242154421524321 
-54.384194562675312 -108.40648813235153 112.37986991475111 -54.384194562675319 -108.40648813235156 112.37986991475105 -21.925926497020974 5.5560347912881084e-06 1.9116620006347818e-05 -1.3449864851867575e-05 0.0000000000000000 1.7269933885822743e-07 -1.3327888403360880e-07 2.2660116111333614e-06 0.00022518290682330426 -2.9531139682461815e-11 -3.0734537399876248e-11 -4.0347639220585045e-11 0.0000000000000000 -54.087034329299712 -108.37170302860723 113.84396407125838 191.01171882188567 0.0000000000000000 0.0000000000000000 0.0000000000000000 0.0000000000000000 3.0577692786914885 3.1163917850533327 1.0586262695625026 1.0283100130797651 249.55744422326009 249.55869181162086 1.0288957796180471 
-41.931516454844107 -107.78696090044498 109.45830101162382 -41.931516454844093 -107.78696090044501 109.45830101162389 -27.307462500503320 -4.5760938141972764e-06 1.3159140888171151e-05 1.7790534377060420e-06 0.0000000000000000 1.4929809040067425e-07 -1.3630142077979506e-07 2.3504089194464074e-06 0.00020728631410703289 3.3572981036060004e-11 -7.5921849396807945e-11 -2.6892281512491803e-11 0.0000000000000000 -41.690910404717421 -107.74885629568415 110.97670241767709 270.34727434602189 0.0000000000000000 0.0000000000000000 0.0000000000000000 0.0000000000000000 3.0547421595172231 3.1101878620880776 1.0554482279249875 1.0272107717954424 255.50372566689995 255.50389519166146 1.0273501579680155 