# For a description of the Tecplot format see the Tecplot User's guide.
#
Variables=x,y,z,s_u,s_v,s_w,s_p,mono_f_vel_u,mono_f_vel_v,mono_f_vel_w,const,u_nu,v_nu,w_nu,p_nu,x_nu,y_nu,z_nu,const,u_ref,v_ref,w_ref,vol_ref,x_ref,y_ref,z_ref,const,I1,I2,I3,J,p1,p2,p3
Zone f=fepoint, n=1339, e=6475, et=brick, c=black
-58.7930 -70.4586 176.159 -58.793018360223634 -70.458564223364178 176.15890809390496 -31.880570350808430 2.1284256917765278e-09 -4.8502404154935319e-08 2.7925934112789882e-07 -32.166247969231918 7.3153724397534425e-10 -3.7926689566702969e-11 8.0290561976781292e-08 1.1888066279707394e-05 1.4175989344002024e-14 7.7635500160443454e-14 -2.7134746048903881e-13 1.1952607818214049e-05 -58.668039002000000 -70.473359259200009 176.35421013599998 215.13583165143561 0.0000000000000000 0.0000000000000000 0.0000000000000000 0.0000000000000000 3.0215905003591064 3.0432891789028571 1.0216988348292964 1.0107141671501396 182.03017488044267 182.03017434635373 1.0107912199133351 
-65.099474806823665 -76.408038356101201 183.88681309677401 -65.099474806823665 -76.408038356101201 183.88681309677398 -33.334442514808721 -1.0719060111258136e-06 -1.3876633355919053e-06 1.4416396199950697e-06 -33.347120315953980 7.9810001316071855e-10 -1.7036982935536571e-11 5.6608367993149513e-08 1.2341128739968206e-05 5.8354345631298551e-13 2.2095279256476128e-13 -7.4199891135960556e-13 1.2712498229236350e-05 -64.963123215600007 -76.414687385200040 184.02450960799996 253.42820447565578 0.0000000000000000 0.0000000000000000 0.0000000000000000 0.0000000000000000 3.0217821161445291 3.0436751316584743 1.0218931792524852 1.0107141671501394 185.56389912315356 185.56389802441075 1.0108873855080058 
-69.808435719967704 -71.570874173671754 177.04799771865530 -69.808435719967719 -71.570874173671754 177.04799771865530 -32.327485235423488 -7.4543047657088899e-07 -2.2184649386027260e-07 7.3220366414169552e-08 -33.023012804554973 8.4780138118190084e-10 -3.4015429362099781e-11 7.7565955214353721e-08 1.1949844946479000e-05 4.1532811655370025e-13 2.4865709971848088e-13 -2.3963637699220983e-13 1.2125559442748459e-05 -69.663592608799988 -71.584146237200002 177.23667228800005 218.29881668600640 0.0000000000000000 0.0000000000000000 0.0000000000000000 0.0000000000000000 3.0218885617210307 3.0438886715967386 1.0220002748182997 1.0107141671501412 184.46597138736342 184.46597202654468 1.0109403834542996 
-57.287269371000789 -87.735635014687631 171.44036361256624 -57.287269371000782 -87.735635014687574 171.44036361256624 -29.982348308212675 -1.0259958087723391e-06 1.5148070917370424e-06 3.7815737626305947e-06 0.0000000000000000 7.1563897516280218e-10 2.2717605574484878e-11 9.4750558066181156e-08 1.1451495725384293e-05 3.2520632815631218e-13 -9.1735466054307706e-13 -7.3503043963455633e-13 0.0000000000000000 -57.165005282198301 -87.726774323660578 171.67083873969227 259.76550921814646 0.0000000000000000 0.0000000000000000 0.0000000000000000 0.0000000000000000 3.0206541394658055 3.0414033608654694 1.0207493406694015 1.0104183040116879 173.61585448618939 173.61585567085899 1.0103213597131957 
-89.077935922005224 -83.380820467017458 116.47270389141585 -89.077935922005224 -83.380820467017443 116.47270389141582 -26.712199844061828 6.6633607574886942e-08 2.6135920398711589e-06 -1.3027622538049695e-06 0.0000000000000000 1.0511907143351262e-09 7.4239919767293811e-12 2.6319917689754385e-07 1.0792124018335163e-05 -9.9210982465244250e-14 -1.6929700208814443e-12 8.7379336224573133e-14 0.0000000000000000 -88.898344731952406 -83.377922378373768 117.11292023788836 283.91631954144174 0.0000000000000000 0.0000000000000000 0.0000000000000000 0.0000000000000000 3.0207329137269934 3.0415561975009600 1.0208233913438785 1.0104480129917015 167.99108488295849 167.99325074751516 1.0103580294783716 
-97.790995963027115 -66.882008584946661 107.51314853044862 -97.790995963027129 -66.882008584946661 107.51314853044860 -31.179377762107023 1.0953014157346617e-07 1.0799521011151194e-06 -5.7668082526183691e-06 -32.021367237001172 1.1431567879804927e-09 -5.0476831048307253e-11 2.9065578099896072e-07 1.2116493790588372e-05 -5.5378682861182527e-13 -4.0066807151414084e-13 1.0651825031765712e-12 1.2027067481946519e-05 -97.595692787999965 -66.901700632800015 108.22015140479995 322.25788568967050 0.0000000000000000 0.0000000000000000 0.0000000000000000 0.0000000000000000 3.0217431489408493 3.0435983825853836 1.0218554004503113 1.0107141671501383 181.45656925811224 181.46100193648354 1.0108686910944764 
-79.825439299570732 -67.512621556156006 107.91144089557461 -79.825439299570704 -67.512621556156020 107.91144089557461 -30.596364631487475 -1.2899199183178650e-06 1.3022344510699898e-06 -2.5681123659344500e-06 0.0000000000000000 9.5353366522110683e-10 -4.8269221952779169e-11 2.8943520224977709e-07 1.1984261829021203e-05 7.8091810144278038e-13 -7.0781386390546680e-13 6.2702857226388726e-13 0.0000000000000000 -79.662532843379708 -67.531450170133141 108.61547480962874 295.38956150422752 0.0000000000000000 0.0000000000000000 0.0000000000000000 0.0000000000000000 3.0210319061770003 3.0421634670828781 1.0211316944472129 1.0105267877167654 176.72096345537955 176.71993890487963 1.0105105675448829 
-94.667458480901587 -81.840292349680539 107.92235566354124 -94.667458480901587 -81.840292349680553 107.92235566354124 -29.806375649731169 -1.8715738391243278e-06 1.8182462832806369e-06 -4.3450741604113603e-06 0.0000000000000000 1.1101849960171160e-09 2.0151103008458900e-12 2.8940175522684797e-07 1.1805701899899769e-05 1.3173801781350760e-12 -9.1350354472132160e-13 9.7316745911346212e-13 0.0000000000000000 -94.477787882002133 -81.839503548705352 108.62630821647583 293.80807890400462 0.0000000000000000 0.0000000000000000 0.0000000000000000 0.0000000000000000 3.0210262164165149 3.0421498053397027 1.0211237164264935 1.0105218099783477 174.40542447983140 174.40066997030902 1.0105066174004058 
-47.403829401533407 -126.02296179351667 138.20041925923545 -47.403829401533379 -126.02296179351661 138.20041925923539 -14.498499765867090 3.1615050043953227e-07 9.4049452061623781e-07 2.9231429931546572e-06 0.0000000000000000 6.9873155032547113e-09 -2.0309852512781727e-09 1.9126840057889674e-07 7.5568617546798748e-06 -1.9732243570640564e-13 -4.5663830266543825e-13 -5.5449577257721625e-13 0.0000000000000000 -47.292355390977058 -125.96433165720771 138.67232254046354 244.31333887135355 0.0000000000000000 0.0000000000000000 0.0000000000000000 0.0000000000000000 3.0224774756287758 3.0450818930311399 1.0226046272226019 1.0112758656748368 156.90810902092645 156.90862124822280 1.0112391501159050 
-34.280396216857056 -140.51520860063562 138.74226138270814 -34.280396216857064 -140.51520860063559 138.74226138270808 -14.457458644624863 1.8022862586105668e-06 -1.3820436205313485e-07 1.4693225623593757e-06 0.0000000000000000 2.9523860473205502e-09 9.7661736492063681e-10 1.9380128568836084e-07 7.5150372055130049e-06 -1.0965290173001604e-12 3.1243348170009526e-13 -5.4752203853421144e-14 0.0000000000000000 -34.196989160350306 -140.43319657724166 139.21506628885933 210.16870282748488 0.0000000000000000 0.0000000000000000 0.0000000000000000 0.0000000000000000 3.0222506181735200 3.0446232115829228 1.0223727849536219 1.0111352964315181 155.77315524175495 155.77346605973329 1.0111245293092894 
-31.023132714169201 -127.70472228596752 142.28080591819241 -31.023132714169179 -127.70472228596748 142.28080591819250 -16.275189709619990 1.3288339295295735e-06 5.5062838580233239e-07 3.1914531061659666e-06 0.0000000000000000 4.3842577832076124e-10 1.6298642990797421e-10 1.8411015667574307e-07 7.8861386153717041e-06 -8.3531710860367505e-13 -2.1536195820075434e-13 -2.5049287480026180e-13 0.0000000000000000 -30.948229910445860 -127.64113600963313 142.72864290474456 229.21992526850030 0.0000000000000000 0.0000000000000000 0.0000000000000000 0.0000000000000000 3.0219147547532645 3.0439453482061638 1.0220307692057633 1.0109990843563637 157.15466762190962 157.15468010806310 1.0109553639800379 
-48.519571789386681 -130.97076512704069 146.44719825572955 -48.519571789386660 -130.97076512704064 146.44719825572963 -14.840485917064434 1.3280403879944087e-06 3.5325570548915908e-06 -1.1184861078133090e-06 0.0000000000000000 6.4453567695494844e-09 -1.8232490243048771e-09 1.6737687518467301e-07 7.5787798956259808e-06 -7.6764728946313730e-13 -1.9250714797430274e-12 5.3077421660015121e-13 0.0000000000000000 -48.406431667502837 -130.90513559487593 146.85896726379221 225.63426853136377 0.0000000000000000 0.0000000000000000 0.0000000000000000 0.0000000000000000 3.0226223786123629 3.0453723757419819 1.0227502056782816 1.0112792917419220 157.43748817212517 157.43901579318060 1.0113111301848958 
-53.124894412016083 -84.938070708816440 76.758897634790983 -53.124894412016076 -84.938070708816454 76.758897634791026 -29.145976517766112 -9.3917685048861183e-07 1.0348293589996915e-05 -1.8155653108340025e-05 0.0000000000000000 4.7072176347852049e-10 -4.2374547796109164e-09 3.9448928244670148e-07 1.3323339213312491e-05 9.9410706428784024e-13 -7.2628168963124849e-13 5.1321364924771962e-12 0.0000000000000000 -53.009977022357148 -84.940192361847963 77.707205907375524 356.07450292316213 0.0000000000000000 0.0000000000000000 0.0000000000000000 0.0000000000000000 3.0214011325926062 3.0429068357761668 1.0215058436881927 1.0106766771808180 170.63311762201204 170.63229719711137 1.0106955619932874 
-40.404519131909659 -85.656632097972576 66.470447409007477 -40.404519131909645 -85.656632097972576 66.470447409007434 -41.259120087867636 2.3127986463774741e-07 2.9472102954860691e-06 -1.0318622659814812e-05 0.0000000000000000 -3.8884540987735616e-11 -1.1437213655460093e-09 4.2006167836867682e-07 1.6018763385714767e-05 -4.3418042992567432e-13 -8.5856705197744246e-13 1.7394764518990257e-14 0.0000000000000000 -40.313282635619565 -85.652866469445740 67.489144002613742 334.72004880612383 0.0000000000000000 0.0000000000000000 0.0000000000000000 0.0000000000000000 3.0208298564769214 3.0417623971658587 1.0209326854612113 1.0105212122670428 194.08981656358750 194.08948997765279 1.0104120895325623 
-43.024064912686555 -94.083274027981517 82.371087652453326 -43.024064912686534 -94.083274027981560 82.371087652453312 -24.786020798641836 1.0375063448390100e-05 2.2208909665276628e-06 -7.6176678709449877e-06 0.0000000000000000 -1.1375893398183629e-09 -3.9334838916600838e-09 3.7569204138010910e-07 1.1846607823244037e-05 -3.4844684663092579e-12 4.7428277783420539e-13 7.1585925129871964e-12 0.0000000000000000 -42.930125987095458 -94.071309017270835 83.274511392489799 283.94561953274422 0.0000000000000000 0.0000000000000000 0.0000000000000000 0.0000000000000000 3.0216251872064088 3.0433594378379922 1.0217344060886122 1.0107072716099059 166.31792548122300 166.31937026446406 1.0108087471052369 
-45.046526050928584 -98.993992735824804 67.006612148803626 -45.046526050928598 -98.993992735824733 67.006612148803654 -33.955970271458376 8.3159154611537479e-06 4.9715432874936692e-06 -1.5846094145188590e-05 0.0000000000000000 5.8643956010739906e-10 6.2232496933489756e-11 4.1478821777296560e-07 1.4404911530795729e-05 -6.3668578088405317e-12 -3.2924478340451058e-12 -3.1830544119712183e-12 0.0000000000000000 -44.946335306532468 -98.969717126470769 68.015559797458934 339.42980011114588 0.0000000000000000 0.0000000000000000 0.0000000000000000 0.0000000000000000 3.0214264326140019 3.0429648182814524 1.0215385569495654 1.0106621698936635 181.28735347118584 181.27979219437145 1.0107118461963120 
-35.752364794086276 -100.85767209000335 74.401616530655261 -35.752364794086255 -100.85767209000329 74.401616530655261 -32.133456139489120 5.9716075566174426e-06 3.3284078486704336e-06 -7.5029901243113932e-06 0.0000000000000000 -1.8429083921879763e-09 -1.4849238285242577e-09 3.9565431794840036e-07 1.3933171861331217e-05 -9.2265247421601931e-13 -2.9000117799034258e-12 2.5079221685640838e-12 0.0000000000000000 -35.672109309640206 -100.83293553867907 75.360366609178811 338.44965823895870 0.0000000000000000 0.0000000000000000 0.0000000000000000 0.0000000000000000 3.0205885473641860 3.0412768898027029 1.0206884825410141 1.0104908537402379 176.86484270749941 176.86567874980744 1.0102912671526942 
-49.083263123998350 -112.03420703373882 64.354425317371224 -49.083263123998343 -112.03420703373878 64.354425317371224 -30.241734597868223 1.1454800454343475e-05 3.5216574046418076e-06 -9.1701714595053058e-06 -25.478727328551773 6.2904976713684658e-10 1.0799947047779311e-10 4.2291585611309301e-07 1.2973517564601475e-05 -5.1820377962990465e-12 2.4545451602999103e-12 3.9655063419645002e-12 1.2817646594443904e-05 -48.975793059600008 -111.99207679200002 65.383142959360015 326.57209562220959 0.0000000000000000 0.0000000000000000 0.0000000000000000 0.0000000000000000 3.0214234492987222 3.0429511908304332 1.0215278849883060 1.0106963705160925 176.02976753149139 176.02669185962353 1.0107065612905117 
-25.304126759456931 -110.52193097730773 66.456608865720426 -25.304126759456942 -110.52193097730778 66.456608865720426 -38.732060003360317 2.0599221878692499e-06 1.9275316843261339e-06 -8.6661819932542915e-06 0.0000000000000000 3.7806080835367512e-10 1.0268727534956668e-10 4.1647370752073698e-07 1.4988614352586117e-05 -1.2281598614593410e-12 -1.9920342074322804e-12 9.8051923728416555e-13 0.0000000000000000 -25.239536857883341 -110.48187134057846 67.469656361758609 349.35568362690350 0.0000000000000000 0.0000000000000000 0.0000000000000000 0.0000000000000000 3.0210789403587239 3.0422615953788221 1.0211828019630369 1.0105795339402133 191.45463617139373 191.45536874390748 1.0105358737062291 
-44.174470942826702 -111.30973986744620 75.506816806334214 -44.174470942826702 -111.30973986744627 75.506816806334214 -25.634680512364543 5.9134758812335052e-06 -5.2053823920540287e-06 -4.6689750393619959e-06 0.0000000000000000 5.7724030763650624e-10 1.0545164741415646e-10 3.8873930940930284e-07 1.1691758384986772e-05 -3.3830302051085537e-12 9.6036539096333600e-13 2.7359087265443655e-12 0.0000000000000000 -44.075852747763513 -111.26860156453857 76.452402029906395 268.59635586333832 0.0000000000000000 0.0000000000000000 0.0000000000000000 0.0000000000000000 3.0217813661498707 3.0436783879429319 1.0218972002670277 1.0106645676815915 170.66309511803323 170.66474785003268 1.0108893315806069 
-58.386572073148500 -106.65136441407465 104.60787116831261 -58.386572073148500 -106.65136441407461 104.60787116831261 -12.388434515633991 1.8361190950831257e-06 6.5099853182046531e-06 4.3057349019705429e-08 0.0000000000000000 7.9246108818490185e-09 -9.5871316469647665e-09 3.0265749939722438e-07 7.1726712884847163e-06 -1.5602301418734220e-12 -4.8009228894389467e-12 4.6670924261484547e-13 0.0000000000000000 -58.254647241440821 -106.62760994408018 105.33920711112118 241.62621693813244 0.0000000000000000 0.0000000000000000 0.0000000000000000 0.0000000000000000 3.0231500560618643 3.0464326068828882 1.0232827738819343 1.0115007328722094 155.61594928484917 155.61474498618236 1.0115743946092026 
-64.514759067850690 -90.089920517425213 95.886864455198307 -64.514759067850704 -90.089920517425242 95.886864455198307 -19.959756017887987 -3.3862606051353150e-06 1.5957061786980678e-06 5.6250401280883907e-06 0.0000000000000000 7.9399624622008701e-09 -1.0182957040283412e-08 3.3362596083497291e-07 9.5003258965561036e-06 1.4505516150966480e-12 -7.5109558256297229e-13 -1.6523150235480752e-12 0.0000000000000000 -64.370648572599308 -90.090304358695661 96.688480747766732 239.98138923263960 0.0000000000000000 0.0000000000000000 0.0000000000000000 0.0000000000000000 3.0222134161483321 3.0445430726586213 1.0223298226361879 1.0108807554467114 161.72781201609084 161.72735554139638 1.0111031632903185 
-76.081068167215122 -99.718099124385517 100.56105717202945 -76.081068167215122 -99.718099124385503 100.56105717202945 -18.194744337647361 -5.6261088749216439e-06 6.7136339116897494e-06 -1.6080731198381559e-06 0.0000000000000000 1.0177947161405501e-08 -7.4197076560184320e-09 3.1761629963210874e-07 9.1141838660264533e-06 4.3571944402133694e-12 -5.0399457827793418e-12 5.7044466221162174e-13 0.0000000000000000 -75.913673002404863 -99.702254402691466 101.32606574872912 288.13617662859207 0.0000000000000000 0.0000000000000000 0.0000000000000000 0.0000000000000000 3.0225071055695154 3.0451358274577558 1.0226289110555777 1.0110842204145312 160.93270803041551 160.93402826083829 1.0112512223849075 
-55.290203104051258 -93.591366303565849 102.57753850253260 -55.290203104051230 -93.591366303565806 102.57753850253265 -18.609067923178976 -2.1332696061502377e-07 3.6018811727626639e-06 2.3266021435230828e-06 0.0000000000000000 6.9255230457404314e-09 -1.0017155288167891e-08 3.1070649019563082e-07 9.0641094093851517e-06 5.3120100792934757e-13 -1.7770662000965930e-12 4.0738005249620527e-13 0.0000000000000000 -55.164710769962618 -93.586508083202432 103.32606452766413 222.68531933077850 0.0000000000000000 0.0000000000000000 0.0000000000000000 0.0000000000000000 3.0222353760654199 3.0445839152976011 1.0223486991215223 1.0110763495496449 163.61216709542893 163.61237921002200 1.0111126152255314 
-45.864443491228243 -176.02555233280350 155.29835379740175 -45.864443491228251 -176.02555233280336 155.29835379740180 -15.261364935882380 -3.1063027634882469e-06 -3.3948475448953555e-06 6.9494840101556223e-06 0.0000000000000000 5.9507527724877995e-10 3.3259159315512932e-10 1.4421783567364344e-07 7.2158385789964745e-06 1.6434020300454308e-12 2.3789830920685555e-12 -2.2204986779205636e-12 0.0000000000000000 -45.762777822239421 -175.89580528354742 155.64915507299250 248.91339099022119 0.0000000000000000 0.0000000000000000 0.0000000000000000 0.0000000000000000 3.0222241181060809 3.0445610484140060 1.0223370925297532 1.0109815742817241 153.95960284680618 155.60629147635154 1.0111068383099273 
-51.547409032202971 -185.70581265613936 167.89682446014666 -51.547409032202957 -185.70581265613939 167.89682446014669 -17.080268771972751 2.9670747799145849e-07 -4.7794833333812116e-07 -3.3760385081004487e-07 -17.972746626429391 6.5505624188832989e-10 3.6656264135181971e-10 1.0560977448115239e-07 7.6751166410629702e-06 -3.7169333753636759e-13 1.5525022636697223e-13 3.0339060803750154e-13 7.8744306808346348e-06 -51.435495451599998 -185.56281141599996 168.15371392000000 294.81703600272857 0.0000000000000000 0.0000000000000000 0.0000000000000000 0.0000000000000000 3.0213359210579509 3.0427768127897816 1.0214410402070244 1.0107141276853568 154.52703329539330 153.81924904505743 1.0106636756048766 
-42.769491717232469 -171.30471102818026 165.99871856176472 -42.769491717232462 -171.30471102818035 165.99871856176472 -16.628284954022448 5.2628500830399058e-07 -5.3802843139994882e-07 1.7675113857992738e-06 0.0000000000000000 8.5301109135274608e-10 -3.5466918281637348e-10 1.1117458494416051e-07 7.7103644769114466e-06 -3.4696497157604182e-13 9.0573017670619723e-15 -1.6522816061590508e-13 0.0000000000000000 -42.672974891599750 -171.18173466392949 166.26923354793541 271.88244999766295 0.0000000000000000 0.0000000000000000 0.0000000000000000 0.0000000000000000 3.0214354415677884 3.0429774313599562 1.0215421425911231 1.0107607101499263 153.72827550431847 153.86677078100180 1.0107136838551272 
-59.509005396049218 -178.15003928914444 157.41559719211068 -59.509005396049204 -178.15003928914444 157.41559719211077 -18.048678621096226 -1.8255891072831190e-06 -6.4600441409612676e-07 -2.4638174248486281e-07 0.0000000000000000 7.3909109041259125e-10 3.4004371540774514e-10 1.3772953422197531e-07 7.9478789709964245e-06 9.1632777188393240e-13 3.4326128329995816e-13 -2.5264446109774642e-13 0.0000000000000000 -59.382734921100123 -178.01738339707751 157.75061606229067 243.94852352315442 0.0000000000000000 0.0000000000000000 0.0000000000000000 0.0000000000000000 3.0213895965515674 3.0428832982070073 1.0214938459032583 1.0107567126461954 156.12569015769984 155.26596187295169 1.0106897996517075 
-30.734711244852114 -102.75099741538885 94.518571596310494 -30.734711244852104 -102.75099741538889 94.518571596310494 -16.675469122712649 2.7455751604089798e-06 5.0733755885334033e-06 -1.2289700460591856e-05 0.0000000000000000 7.2238065522379699e-10 -2.8428511680645566e-09 3.3553206631048990e-07 9.2035082255927864e-06 -4.1225852289616351e-12 -2.6712679108909256e-13 1.5043076146850147e-12 0.0000000000000000 -30.660097366607719 -102.72526557899965 95.328291536857705 204.58703120518373 0.0000000000000000 0.0000000000000000 0.0000000000000000 0.0000000000000000 3.0221423483969629 3.0443948550720052 1.0222526576882276 1.0109916295912129 156.99757096283159 156.99767785980055 1.0110650808684103 
-18.857185887128260 -110.94659221326185 92.535386186641063 -18.857185887128256 -110.94659221326178 92.535386186641063 -23.113989286508652 4.9668604219848631e-06 4.0135713664737683e-07 -1.0839068813659876e-05 0.0000000000000000 3.1001259545582194e-10 1.0418210738549762e-10 3.3655518261177519e-07 1.0765649895839060e-05 -1.4428255045620742e-12 -5.1471367772105529e-13 4.3183906548917090e-13 0.0000000000000000 -18.804221549666405 -110.90595113131390 93.354036648627854 267.24800799435923 0.0000000000000000 0.0000000000000000 0.0000000000000000 0.0000000000000000 3.0213344831593800 3.0427710784695887 1.0214367351771889 1.0107156687279093 166.65865462407842 166.65866452994248 1.0106615639768917 
-33.893277085976507 -104.74095224969550 84.118364147808052 -33.893277085976486 -104.74095224969550 84.118364147808080 -24.437252902872732 5.0681407432107298e-06 -7.3692944179069780e-07 -8.8653389777205496e-06 0.0000000000000000 -1.5228632473782987e-09 -1.0521809126886872e-09 3.6874080963588841e-07 1.0995844060980031e-05 -3.9127119972236750e-12 3.7110614922190286e-13 1.2532760647175214e-12 0.0000000000000000 -33.815892125380543 -104.71065599625929 85.007910193808286 270.69679205096202 0.0000000000000000 0.0000000000000000 0.0000000000000000 0.0000000000000000 3.0209174788592938 3.0419386897632550 1.0210213600573290 1.0106020686700883 165.02756528120969 165.02718399826969 1.0104559489125304 
-18.974359354940503 -100.40588991936363 94.594764605298721 -18.974359354940500 -100.40588991936367 94.594764605298693 -20.317193926359622 1.8435863061223079e-06 -4.3502349073522930e-07 -2.9626411096006384e-06 0.0000000000000000 3.1124910634949815e-10 6.7181510354785701e-11 3.3024421486338440e-07 9.7060701098908864e-06 -6.5372164127285255e-15 1.2787923071305547e-12 3.7113736921020976e-13 0.0000000000000000 -18.921183722278450 -100.37968114352928 95.398064000337470 185.31956687594098 0.0000000000000000 0.0000000000000000 0.0000000000000000 0.0000000000000000 3.0215387978173016 3.0431802008835955 1.0216415408673529 1.0107412646123999 162.32946101858226 162.32947318963065 1.0107628998787885 
-31.198591537541084 -118.02730204949684 172.99706944228768 -31.198591537541095 -118.02730204949691 172.99706944228768 -21.813217900315525 4.9611187627109096e-06 5.0639972005809292e-06 2.1675398125042620e-06 0.0000000000000000 -4.4127210845434277e-10 -1.6645954004457618e-09 8.6827305670897907e-08 9.8617868232976181e-06 -2.4046638530941541e-12 -2.5692413865921314e-12 -7.7015294151870099e-13 0.0000000000000000 -31.124431206993112 -117.97934695114738 173.21200361760444 258.17126679857051 0.0000000000000000 0.0000000000000000 0.0000000000000000 0.0000000000000000 3.0215549904485348 3.0432155861195920 1.0216607412409997 1.0108122922676377 163.60064640716826 163.60063046363859 1.0107723554825194 
-30.716509643080780 -133.20430124193101 164.52803053117171 -30.716509643080798 -133.20430124193092 164.52803053117171 -18.061925784501764 4.0541856481469362e-06 1.5276347898296436e-07 1.1857412941445743e-07 0.0000000000000000 5.4877519185635420e-10 -9.9042129656880331e-10 1.1451131341704450e-07 8.4909813951407498e-06 -2.2406826262278006e-12 -1.9638554614531812e-13 -8.9722134558502706e-14 0.0000000000000000 -30.642131568542830 -133.13454878399213 164.80820313575899 262.24283076768535 0.0000000000000000 0.0000000000000000 0.0000000000000000 0.0000000000000000 3.0218151359832799 3.0437420019168213 1.0219270304565382 1.0109365771934058 158.85380080140266 158.85375812593577 1.0109040535441032 
-42.774508088041308 -120.15325229918029 163.42102301096000 -42.774508088041323 -120.15325229918029 163.42102301096008 -15.604162232136023 6.9997802898162783e-06 3.9100033312624830e-06 1.8228379614669558e-06 0.0000000000000000 1.7461624121454024e-09 -4.6251067290486634e-09 1.1306022790572560e-07 8.0345754722730157e-06 -4.3133640486515438e-12 -2.8358250864635443e-12 -2.0494833278629761e-12 0.0000000000000000 -42.676694985445003 -120.10595080876966 163.70375490782192 268.28772502602959 0.0000000000000000 0.0000000000000000 0.0000000000000000 0.0000000000000000 3.0229200690184985 3.0459675990401696 1.0230477338260859 1.0112894678089828 157.85414447885071 157.85419445720621 1.0114582165546648 
-23.809217507476067 -114.27917149972879 161.50826026749846 -23.809217507476081 -114.27917149972880 161.50826026749840 -22.040252510543947 2.3294272301445821e-06 1.8189609252437747e-06 2.5218780510392389e-06 0.0000000000000000 3.6228187463849265e-10 1.1587597548157191e-10 1.2518753100820845e-07 9.4825491687356192e-06 -1.3944956914673108e-12 -9.7152898523585442e-13 -3.5769919760308663e-13 0.0000000000000000 -23.747323328369049 -114.23396745764113 161.81277151251504 321.01516800445251 0.0000000000000000 0.0000000000000000 0.0000000000000000 0.0000000000000000 3.0213106340812304 3.0427251117961731 1.0214146203890371 1.0107338852181498 163.69834969572969 163.69833125523738 1.0106506178091399 
-6.4941183983596478 -105.02007927763097 108.63284305001893 -6.4941183983596469 -105.02007927763094 108.63284305001891 -12.564334597524766 2.6195596590892149e-07 -1.5446704557997334e-07 -6.0971945925408887e-06 -9.9525192105803715 1.7952196326720404e-10 8.3369228187635258e-11 2.8722446265838641e-07 6.5190059542540768e-06 -6.7359379926436184e-14 1.4628848905713323e-13 1.5131733881072070e-12 5.4959720529761176e-06 -6.4634479885999987 -104.98755276399999 109.33149947120000 327.67017865987640 0.0000000000000000 0.0000000000000000 0.0000000000000000 0.0000000000000000 3.0214106733796351 3.0429278250743432 1.0215173033268685 1.0107491005253033 144.79484680241424 144.79485197731563 1.0107014001154280 
-11.847161817269367 -97.138615770944369 100.67974272610167 -11.847161817269367 -97.138615770944384 100.67974272610168 -18.397465084632948 -4.7422600247271621e-07 -4.0600090352984791e-07 -6.8884782483208019e-06 -17.402699133301336 2.3602299975555852e-10 5.5712962021559052e-11 3.1159677393866048e-07 8.7124834911667829e-06 -5.1924035873260320e-14 -1.1611290377081208e-13 1.6270323294737109e-12 8.4873042262940084e-06 -11.806838433999999 -97.116880539599975 101.43768333439998 212.90238721710071 0.0000000000000000 0.0000000000000000 0.0000000000000000 0.0000000000000000 3.0214120680759429 3.0429293819811543 1.0215174628898305 1.0107141671501390 156.85970996090305 156.85970909398375 1.0107014729588604 
-15.897231384745494 -110.39999547457043 102.35195108512077 -15.897231384745494 -110.39999547457045 102.35195108512079 -16.169268240889210 2.7694767027362519e-06 -3.7371754060158753e-07 -1.2949112264362627e-05 0.0000000000000000 2.7877135322373903e-10 1.0225875701763697e-10 3.0647228621560885e-07 7.9384707407023399e-06 -2.2256565410904264e-12 2.8996250498489570e-13 3.7515684088414668e-12 0.0000000000000000 -15.849604639409371 -110.36010279166017 103.09742667861765 236.22178992679409 0.0000000000000000 0.0000000000000000 0.0000000000000000 0.0000000000000000 3.0213092860115016 3.0427240675039413 1.0214149312242971 1.0107418521479088 153.21413228097114 153.21413439677596 1.0106507530587800 
-23.811476907802469 -99.559262034879353 101.53024617166432 -23.811476907802458 -99.559262034879353 101.53024617166426 -16.024314205472788 3.3231951012341764e-06 5.4117701407177377e-06 -8.2368970736036115e-06 0.0000000000000000 3.6230459951602784e-10 6.4211941319669563e-11 3.0899040237564174e-07 8.1485098201779536e-06 -1.4732148711161327e-12 -3.3970911727249180e-12 2.5863490929470139e-12 0.0000000000000000 -23.749578654390465 -99.534212460059550 102.28184693721489 211.57004919854941 0.0000000000000000 0.0000000000000000 0.0000000000000000 0.0000000000000000 3.0216191445076803 3.0433481383273939 1.0217291510043660 1.0108433586729346 153.82647459676704 153.82645599137365 1.0108061815913059 
-54.212349425639871 -108.39877418868519 113.17954767378427 -54.212349425639879 -108.39877418868518 113.17954767378431 -8.5399823077505506 1.9883698280125286e-06 6.7256988394434416e-06 -4.8284794190096193e-06 0.0000000000000000 8.9554783712858561e-09 -8.8877416584607551e-09 2.7346837689827745e-07 6.1340015787032852e-06 -1.8455533885394363e-12 -3.2493620263213517e-12 -5.7054168254637102e-13 0.0000000000000000 -54.087034329299712 -108.37170302860723 113.84396407125838 191.01171882188567 0.0000000000000000 0.0000000000000000 0.0000000000000000 0.0000000000000000 3.0237488506664452 3.0476364159922169 1.0238878043480082 1.0117492165822888 150.49284006099913 150.49327930642130 1.0118734220406604 
-41.791941500721727 -107.77630651492039 110.28919996883883 -41.791941500721727 -107.77630651492032 110.28919996883890 -10.513438276501804 -1.6855163778879133e-06 4.6791092005611400e-06 7.6114513831869758e-07 0.0000000000000000 7.5708181780165589e-09 -8.2718592496138855e-09 2.8356829983667931e-07 5.9962423800443865e-06 1.5770272512038703e-12 -4.3543342600099809e-12 -7.0719148738459931e-13 0.0000000000000000 -41.690910404717421 -107.74885629568415 110.97670241767709 270.34727434602189 0.0000000000000000 0.0000000000000000 0.0000000000000000 0.0000000000000000 3.0230768009596951 3.0462783139645828 1.0232017055624965 1.0115032824344563 153.10128997910934 153.10122231757001 1.0115343333842342 