# For a description of the Tecplot format see the Tecplot User's guide.
#
Variables=x,y,z,s_u,s_v,s_w,s_p,mono_f_vel_u,mono_f_vel_v,mono_f_vel_w,const,u_nu,v_nu,w_nu,p_nu,x_nu,y_nu,z_nu,const,u_ref,v_ref,w_ref,vol_ref,x_ref,y_ref,z_ref,const,I1,I2,I3,J,p1,p2,p3
Zone f=fepoint, n=356, e=1130, et=brick, c=black
-67.8647 -97.8567 78.6019 -67.864681695158239 -97.856746444980203 78.601874654402522 -454.65410581065561 -0.00018273935078987847 0.00011361900642862598 0.0010583094465859003 7.3644738135793907e-18 7.4092161850280989e-08 3.9601697476854261e-09 0.00014029186548469852 0.012024633999811213 3.8095466725826305e-09 -3.7108116128030106e-09 -1.3777160371981746e-08 -3.3245303934048317e-19 -65.754724465942431 -97.517594547729473 92.373562431030237 2074.8615187338191 0.0000000000000000 0.0000000000000000 0.0000000000000000 0.0000000000000000 3.3647440446080177 3.7581861644999499 1.3940838776257156 1.1804711986985190 2508.1130543999461 2194.1751399435011 1.1807131642538418 
-78.133498316395219 -131.58883553814283 63.423771642958954 -78.133498316395190 -131.58883553814283 63.423771642958961 -156.00753646212024 -0.00028704118194329369 -8.7220428372446857e-06 7.0789985934956943e-05 210.48784582158666 8.3799364891667949e-08 1.2011057259897484e-08 0.00015749784662588695 0.0088362854980026627 1.1535212436911741e-08 5.2806902635623722e-09 -5.2449818697728418e-09 -0.0028146749274371515 -75.747104543999981 -130.56019973999997 78.884476808000016 2128.8259272129790 0.0000000000000000 0.0000000000000000 0.0000000000000000 0.0000000000000000 3.3642208459294456 3.7572270582853218 1.3936490198726001 1.1804711986985192 1958.9008104596981 2050.5852350769787 1.1805251398245067 
-65.467705369387858 -122.64034685347384 54.822810890912478 -65.467705369387872 -122.64034685347384 54.822810890912478 6.7694830732550475 0.00018071084187916699 0.00012110650577191109 -7.1880271741030132e-05 314.41437453762370 7.1826272818320560e-08 9.8752981347871566e-09 0.00016724794309297408 0.0041467248216160791 -8.4970140188553813e-09 8.9403002129008598e-11 -3.9976498177084379e-10 -0.0055423322530351714 -63.422274742800013 -121.79461816400000 71.240629883439979 1237.7701333319521 0.0000000000000000 0.0000000000000000 0.0000000000000000 0.0000000000000000 3.3648541922982025 3.7581206226744155 1.3938873035717361 1.1804711986985188 1538.4075323945849 1574.1262608072907 1.1806313568435816 
-57.996627330369819 -133.13988646712326 60.899849231389389 -57.996627330369840 -133.13988646712326 60.899849231389382 -95.392219816620937 0.00024836578647680519 -0.00017481833025094265 -9.6002135191400548e-05 -83.825892675607776 6.4763803764300576e-08 1.2381254910209806e-08 0.00016035897896671258 0.0059037642492883033 -1.2198028827794455e-08 6.0247461928023478e-09 4.5691154171972783e-09 0.013180038923835251 -56.152318124399997 -132.07954718800002 76.641416164000006 2090.5778096190215 0.0000000000000000 0.0000000000000000 0.0000000000000000 0.0000000000000000 3.3624980730050784 3.7537089671008199 1.3918578347556620 1.1804711986985184 1876.9762741252148 1991.3339845827991 1.1797662987816671 
-126.58867277969996 -110.99510324211715 75.039294109782304 -126.58867277969996 -110.99510324211715 75.039294109782304 -587.11538133203510 -3.0734566657075891e-05 -8.7378020973008092e-06 5.3039988073609387e-05 -625.59503675454732 1.2960445794352185e-07 7.0959200737519268e-09 0.00014433042640149552 0.025388148691346646 8.7764422514334273e-10 -9.5758525060119687e-10 8.9515168737495088e-09 0.029498329886513859 -122.89786571200003 -110.38740333199999 89.207425400000020 2092.2379289329847 0.0000000000000000 0.0000000000000000 0.0000000000000000 0.0000000000000000 3.3647290586619567 3.7580477573152615 1.3939503870095520 1.1804711986985186 2963.8338213147517 2971.3456655305631 1.1806581986136224 
-126.45708017477888 -129.48984755171085 79.849037287899662 -126.45708017477888 -129.48984755171088 79.849037287899662 -529.26236705551923 -9.3320923486935249e-06 -7.7983407671154012e-05 -0.00022561217357830587 -884.18961519730135 1.2948006544721835e-07 1.1510092212674294e-08 0.00013887807504886493 0.022034725997328170 8.5679708398046352e-10 2.6085417013055659e-09 9.0907831843897342e-09 0.027606342156069660 -122.76981557999994 -128.50411506799998 93.481940963999989 2295.0048277193882 0.0000000000000000 0.0000000000000000 0.0000000000000000 0.0000000000000000 3.3646671468583067 3.7577585367536765 1.3937123855102020 1.1804711986985192 3073.5142831857906 3070.7550012533707 1.1805563670835615 
-90.040885826351825 -120.35212806694688 96.198140731171861 -90.040885826351783 -120.35212806694696 96.198140731171861 -234.13341130958551 6.6491843584831015e-05 0.00052087375414203521 -0.00041667801332230216 7.9096412564330274e-19 9.5055528448462225e-08 9.3291718794574779e-09 0.00012034464137400393 0.011404977926082784 1.7343585554820924e-10 -1.6294265794378215e-08 6.4360818082747014e-09 -1.0514800847774983e-19 -87.333945182495114 -119.55317056945796 108.01171823852533 1853.2119812635015 0.0000000000000000 0.0000000000000000 0.0000000000000000 0.0000000000000000 3.3639282506581947 3.7566761252874747 1.3934101689130740 1.1804711986985197 2229.0103875926015 2359.6312421682442 1.1804295268271234 
-125.55992657181005 -119.73564799277601 95.102114255045606 -125.55992657181004 -119.73564799277599 95.102114255045620 -152.54110359952261 -5.5954536243420145e-05 4.0274907283237039e-05 -0.00061169175501967832 -58.282249751794780 1.2863197496049139e-07 9.1820340220039043e-09 0.00012158710300980147 0.011362291639583934 1.1971883874852979e-10 -4.5635218196545899e-09 6.3118857707977878e-09 0.0081437625009736659 -121.89681335200000 -118.94929134799999 107.03765745040002 1571.7251237143605 0.0000000000000000 0.0000000000000000 0.0000000000000000 0.0000000000000000 3.3644127947049753 3.7573290573471421 1.3935347163199749 1.1804711986985192 1960.6898139272685 1965.0456601616611 1.1804817107269281 
-45.688477563964703 -165.34289131088036 113.79440108915833 -45.688477563964710 -165.34289131088039 113.79440108915833 -23.376337013348859 8.8591846449166383e-06 0.00012826282122206182 -3.8241343159118826e-05 0.0000000000000000 5.3128802135482545e-08 2.0067179695715254e-08 0.00010039742372924820 0.0094622001603159624 -2.2859885630669681e-08 -1.2978918031425267e-08 6.0903617135215598e-09 0.0000000000000000 -44.175503749389662 -163.62432261291502 123.64986896362305 1288.7765825848380 0.0000000000000000 0.0000000000000000 0.0000000000000000 0.0000000000000000 3.3713916946263702 3.7740687628136138 1.4034381890703758 1.1835065638397080 1871.3872040685374 2515.8991924624138 1.1846669426433718 
-16.197299131533221 -145.17102419011988 127.76181192992281 -16.197299131533217 -145.17102419011988 127.76181192992277 -46.572081833211264 -4.5999248781747213e-06 -5.4128998997003726e-05 -7.3727857211470718e-05 115.86140670723789 2.5250535773402302e-08 1.5252721530245594e-08 8.4563889906519294e-05 0.0083213399141066208 1.7274640871598636e-10 6.2649343365664189e-09 2.5468429657928085e-08 -0.012283129496747749 -15.478227839600008 -143.86476845600004 136.06298808800005 1207.7015194609139 0.0000000000000000 0.0000000000000000 0.0000000000000000 0.0000000000000000 3.3643915188371123 3.7572244735671614 1.3934538003972168 1.1812846157802486 2006.2898278558232 1927.1233053270846 1.1804424586805968 
-45.688477563964703 -165.34289131088036 131.39066144714477 -45.688477563964682 -165.34289131088030 131.39066144714471 -90.209657048383804 6.1349103634432495e-05 -3.5958085811576727e-05 1.2671934906493045e-05 0.0000000000000000 5.3128802135482545e-08 2.0067179695715257e-08 8.0450206116466916e-05 0.0062472730968732657 -3.6493657580315545e-09 6.7917491130925113e-09 -3.2892845227122159e-09 0.0000000000000000 -44.175503749389669 -163.62432261291511 139.28801968872074 2260.0113226803110 0.0000000000000000 0.0000000000000000 0.0000000000000000 0.0000000000000000 3.3633040151616176 3.7549407915464914 1.3922572250674556 1.1816656809200918 2080.7289680641611 2036.2193677184707 1.1799456687458025 
-6.3354640282466255 -163.13210962021947 121.41831637341980 -6.3354640282466237 -163.13210962021952 121.41831637341983 -248.77260532124805 0.00014426762061756285 -3.3552631110120822e-05 0.00020042580612714261 -471.50789021854604 1.5928055208114245e-08 1.9539534656942689e-08 9.1754911387909033e-05 0.015929102760549110 -2.3447548401715972e-09 3.3293084478594281e-09 1.7355257194522704e-09 0.018837420811701110 -5.8818733370400009 -161.45872929999999 130.42539591680000 1840.5999298976626 0.0000000000000000 0.0000000000000000 0.0000000000000000 0.0000000000000000 3.3633732288835039 3.7549641019874751 1.3922077918088018 1.1804711986985195 2371.2672037817060 2293.4438988689039 1.1799189688713660 
-10.342117822032185 -107.64825999822916 180.56370945794245 -10.342117822032185 -107.64825999822916 180.56370945794245 -92.225862320542475 8.5986191927668446e-06 3.8450594545434362e-05 8.1678348468440026e-06 -111.15637305413455 1.9715579169243824e-08 6.2971270420320033e-09 2.4707368122989234e-05 0.0079682921976061954 6.3852736451310052e-10 -1.3452103363953469e-09 -1.2159924133297742e-09 0.0086886377479437078 -9.7806680107999995 -107.10896956400003 182.98909712000000 1021.2952016557671 0.0000000000000000 0.0000000000000000 0.0000000000000000 0.0000000000000000 3.3644793161848585 3.7574886839590600 1.3936390299758568 1.1804711986985186 2039.6302721739899 2035.7698577624139 1.1805249624874730 
-18.342589226432683 -109.20841446349114 192.27135436195510 -18.342589226432686 -109.20841446349115 192.27135436195513 -104.89204161380469 -9.6624322878368141e-05 0.00012094166139505041 1.6740343726037300e-05 -153.47027162685791 2.7278496683713627e-08 6.6694816336365648e-09 1.1435517407676345e-05 0.0090022768748694755 2.1790648809002694e-09 -2.7710925902243578e-09 -4.3775002616040776e-10 0.0098199743884165528 -17.565766725200003 -108.63723447200002 193.39391677600000 1230.2822850381203 0.0000000000000000 0.0000000000000000 0.0000000000000000 0.0000000000000000 3.3644832384480123 3.7574780050782541 1.3936234563042977 1.1804711986985166 2116.0873724934208 2112.8203311536081 1.1805177695847942 
-45.688477563964703 -120.35212806694688 166.58318216311775 -45.688477563964653 -120.35212806694672 166.58318216311804 -169.30224032140444 -5.9839182744614133e-05 6.6518149412018432e-05 9.9780303717322773e-05 0.0000000000000000 5.3128802135482545e-08 9.3291718794574763e-09 4.0555770851824491e-05 0.010613488798262585 1.9019716783526589e-09 -3.1015048724253846e-09 -1.3956356366991000e-09 0.0000000000000000 -44.175503749389591 -119.55317056945772 170.56432113891603 1872.3464537223574 0.0000000000000000 0.0000000000000000 0.0000000000000000 0.0000000000000000 3.3638820665617848 3.7563087893468285 1.3930607836673370 1.1804711986985177 2225.2072306770242 2236.7117346179912 1.1802831763064465 
-9.8808729887316069 -125.29714204722048 187.17493725297493 -9.8808729887316087 -125.29714204722049 187.17493725297496 -127.56185065799504 4.6254272541737559e-05 -0.00032790803443114171 -0.00012816438138216568 -135.77064560739402 1.9279561891405450e-08 1.0509405123926285e-08 1.7212843900438202e-05 0.0080638370336562504 7.8600836847485714e-10 5.5281142510253730e-09 -6.6678589231431463e-12 0.0068892247189374914 -9.3318398883999993 -124.39710846400000 188.86462832000004 1016.3527334425750 0.0000000000000000 0.0000000000000000 0.0000000000000000 0.0000000000000000 3.3644932844351243 3.7574878254477779 1.3936226218830849 1.1804711986985181 2221.4638016336880 2219.5247680437024 1.1805169537292837 
-45.688477563964703 -165.34289131088036 96.198140731171861 -45.688477563964703 -165.34289131088039 96.198140731171861 -155.47395699599818 -6.1442747648683441e-05 -0.00027277131165904812 -7.8160928308092994e-06 5.4166296605655112e-17 5.3128802135482545e-08 2.0067179695715254e-08 0.00012034464137400393 0.010521336386570292 -7.1656708851034710e-09 2.5076041685833778e-08 7.3123133720916228e-09 -2.3297905850014182e-18 -44.175503749389662 -163.62432261291499 108.01171823852535 1450.3671205666894 0.0000000000000000 0.0000000000000000 0.0000000000000000 0.0000000000000000 3.3661106538059462 3.7608621552052268 1.3953859054482931 1.1819859876540908 1510.5219518752192 1933.4214721669630 1.1812581962424751 
-63.136324626653462 -162.61771190696314 71.433386552487633 -63.136324626653483 -162.61771190696311 71.433386552487633 -890.71594872039566 -0.00033548419703625151 -0.0012140755058679465 -0.00024720860251520240 312.27631244093362 6.9622405285407751e-08 1.9416767527147272e-08 0.00014841810306620573 0.029361087548588689 1.2760441722830918e-08 3.2665571561035530e-08 1.0216461379511358e-08 0.024327709216462556 -61.153654769600031 -160.95484587600001 86.002782780800032 1645.6757988676138 0.0000000000000000 0.0000000000000000 0.0000000000000000 0.0000000000000000 3.3505499116890634 3.7281921500053916 1.3782383054196499 1.1776019879815380 3328.1016474858484 3323.5483077815938 1.1739895051448495 
-45.747254599983158 -169.81151793003809 68.365611949683853 -45.747254599983158 -169.81151793003806 68.365611949683853 -1939.1469900370998 0.00049249639625071674 -0.0024030212236404104 -0.00044134292364019921 -757.15845721550932 5.3184365689240565e-08 2.1133713223875361e-08 0.00015189574924789895 0.041299611895167329 -6.3620705610454853e-09 5.0126668996758742e-08 1.4131495947734893e-08 0.037814699678917499 -44.232698507600013 -168.00161050399998 83.276389748800028 1737.4139093181343 0.0000000000000000 0.0000000000000000 0.0000000000000000 0.0000000000000000 3.3658210303360203 3.7603162442218832 1.3951280666802535 1.1804711986985188 5155.0404401962824 5106.8962177258518 1.1811571867920505 
-45.688477563964703 -187.83827293284710 96.198140731171861 -45.688477563964675 -187.83827293284702 96.198140731171861 -1849.9793465665184 0.00011166259325257437 -0.0010924492183121087 -0.0013195898517692083 8.1308492764712582e-19 5.3128802135482545e-08 2.5436169392989427e-08 0.00012034464137400391 0.044279086447298249 -2.2930291567884997e-09 2.6950352739083349e-08 1.0115717878962773e-08 -9.0491796743423190e-20 -44.175503749389676 -185.65989863464350 108.01171823852533 1616.4576808433910 0.0000000000000000 0.0000000000000000 0.0000000000000000 0.0000000000000000 3.3616471710083715 3.7515063752868523 1.3904802524692601 1.1799425680536626 5237.6385315517055 5102.2033741488403 1.1791860547252759 
-90.040885826351825 -142.84750968891365 131.39066144714477 -90.040885826351783 -142.84750968891368 131.39066144714477 -138.63720270183211 5.8803621978324177e-05 -4.6944377338403677e-05 4.9769513520450186e-05 0.0000000000000000 9.5055528448462212e-08 1.4698162020820860e-08 8.0450206116466916e-05 0.011850200980228674 5.4760982770606407e-11 3.7008400880100582e-09 -8.9752147684744335e-10 0.0000000000000000 -87.333945182495100 -141.58874659118649 139.28801968872074 1877.7986991733408 0.0000000000000000 0.0000000000000000 0.0000000000000000 0.0000000000000000 3.3695285970096776 3.7687067975808084 1.3998352832604433 1.1825646608153888 2199.9827935951566 2248.8030377654923 1.1831518827724323 
-67.864681695158268 -165.34289131088036 131.39066144714477 -67.864681695158225 -165.34289131088028 131.39066144714465 -117.42468006000317 -3.8404847349099592e-05 0.00018034512131892812 0.00017586559305997866 3.3234757976833014e-18 7.4092161850281002e-08 2.0067179695715254e-08 8.0450206116466916e-05 0.012123597558592927 6.7002218717206925e-09 -9.8882219831800451e-10 5.1912408125446330e-09 -1.6930794212774916e-19 -65.754724465942374 -163.62432261291517 139.28801968872077 2018.1238718776010 0.0000000000000000 0.0000000000000000 0.0000000000000000 0.0000000000000000 3.3626976187280171 3.7536458921172455 1.3915648866705030 1.1825043825346799 2103.5856295209674 2101.8038600586010 1.1796517504038326 
-90.040885826351825 -165.34289131088036 113.79440108915833 -90.040885826351783 -165.34289131088036 113.79440108915833 -168.33726804661208 -0.00019032047428359865 -3.6434054901559683e-06 0.00010600248768233377 0.0000000000000000 9.5055528448462212e-08 2.0067179695715257e-08 0.00010039742374345906 0.030103256921150626 -2.2840207406720615e-08 -7.6260298203590485e-09 3.1995091328766808e-08 0.0000000000000000 -87.333945182495114 -163.62432261291505 123.64986896362312 1549.0027140339625 0.0000000000000000 0.0000000000000000 0.0000000000000000 0.0000000000000000 3.3667511291094185 3.7620462192050601 1.3959269246895638 1.1814191322891614 2040.8217621240765 2249.4759430999325 1.1814900607081684 
-90.040885826351825 -142.84750968891365 113.79440108915833 -90.040885826351783 -142.84750968891365 113.79440108915833 -109.14688212538969 -0.00010139515723404555 -3.7364544740913337e-05 0.00017330759442432065 0.0000000000000000 9.5055528448462212e-08 1.4698162020820860e-08 0.00010039742374345907 0.014132230850601757 1.1929235470058322e-09 1.5925802493317586e-08 -4.7464621157514090e-09 0.0000000000000000 -87.333945182495086 -141.58874659118649 123.64986896362313 1389.1126189879024 0.0000000000000000 0.0000000000000000 0.0000000000000000 0.0000000000000000 3.3668905525578898 3.7638686323159618 1.3976361988939916 1.1828445915501602 2029.3497207099567 2422.3452770615695 1.1822284803122758 
-46.738884702723404 -110.94029037103245 29.625331206864580 -46.738884702723411 -110.94029037103245 29.625331206864583 -1133.6178284830180 0.00041211480868550153 -1.5918208668836655e-06 -0.00043129320615523510 -1152.5070692968018 5.4121760073577718e-08 7.0828363174513234e-09 0.00019581194480267072 0.039728739472687041 -6.6461328555029503e-09 1.1452717082840600e-09 1.0292657535616263e-08 0.044286052232656019 -45.197633928000002 -110.33371083599998 48.847122559999995 1069.0094105005942 0.0000000000000000 0.0000000000000000 0.0000000000000000 0.0000000000000000 3.3643870398036024 3.7572881442747392 1.3935304193705904 1.1804711986985181 4084.4956085798044 4085.6018187716622 1.1804788978592828 
-58.994813446592843 -99.197820992188824 26.676048995198993 -58.994813446592843 -99.197820992188838 26.676048995199000 -790.46465403503760 0.00020054392768112291 -1.6463559926681119e-05 -0.00019848261389170696 -329.65570131346607 6.5707399188319471e-08 4.2802426047927611e-09 0.00019915526735658773 0.041916416234091931 -1.6127862122189615e-09 -1.8462217910984485e-09 7.8245790125096844e-09 0.041319676157415046 -57.123633070400032 -98.831257531200038 46.226036100800002 1475.5774262919704 0.0000000000000000 0.0000000000000000 0.0000000000000000 0.0000000000000000 3.3643699735071815 3.7572528362461770 1.3935122639081239 1.1804711986985192 3155.9930200144099 3157.1369272380161 1.1804711981637872 
-62.094258564281226 -106.09452592171310 39.092631896520444 -62.094258564281205 -106.09452592171307 39.092631896520444 -535.35845024470734 0.00010177486737387825 0.00028510826432104770 -0.00035287886967617633 -59.489718881256323 6.8637329930787430e-08 5.9262974527740653e-09 0.00018507976061243880 0.026725611400200674 -2.2047530987041831e-09 -1.7179390658153262e-08 2.2324452043099895e-08 0.0087902099766354620 -60.139641125599979 -105.58699381199996 57.260903223199996 1724.6135661994952 0.0000000000000000 0.0000000000000000 0.0000000000000000 0.0000000000000000 3.3643413963929381 3.7571993371115373 1.3934879880009146 1.1804711986985186 2909.2700351360304 2902.9216694846423 1.1804609133986983 
-20.233753501879011 -88.259030961619814 39.585670580699649 -20.233753501879015 -88.259030961619814 39.585670580699642 -815.17899451950802 7.2574009714099305e-06 -0.00020499976880960030 -0.00064185084259945496 -826.17955546259020 2.9066228313112674e-08 1.6694632343217110e-09 0.00018452084924547305 0.033087579901139634 -3.2211007378404317e-10 2.3780725066635625e-09 1.3121459800945442e-08 0.035961146990610829 -19.406020858399991 -88.116056368799974 57.699076624800000 1439.6451283969650 0.0000000000000000 0.0000000000000000 0.0000000000000000 0.0000000000000000 3.3643207810463305 3.7571472565709012 1.3934558275216740 1.1804711986985184 3390.5971024387031 3392.8609002013109 1.1804472984702516 
-60.693444421185148 -180.61914037679463 63.278287152852606 -60.693444421185163 -180.61914037679466 63.278287152852606 -3712.5150336102597 0.00029352542613491657 -0.00087105717652710213 -0.00097689047427434159 -4512.0461118093499 6.7313130291957179e-08 2.3713174313044764e-08 0.00015766276864326298 0.066509666663018413 -4.3766376512689897e-09 4.9711492291629596e-09 1.9845529133663119e-08 0.10569269256943686 -58.776536899199989 -178.58832514800000 78.755181813599989 1584.4809985467919 0.0000000000000000 0.0000000000000000 0.0000000000000000 0.0000000000000000 3.3666880908937475 3.7621427311086091 1.3960909687059779 1.1804711986985184 8871.1874370407331 8923.9082663363042 1.1815664685657876 
-76.814256473621725 -187.10622450432834 55.931300913602705 -76.814256473621739 -187.10622450432834 55.931300913602705 -2747.8481977243368 0.0022551546590062334 -0.0014444688589274699 0.00011360243335229476 -2887.6004896352883 8.2552279345726718e-08 2.5261466474191255e-08 0.00016599135269501633 0.061538421565822378 -3.1537102028066965e-08 1.9151177780573810e-08 -2.3668319972709765e-09 0.060481731720893765 -74.463376691600018 -184.94281327599995 72.225767276240006 1182.3928641350060 0.0000000000000000 0.0000000000000000 0.0000000000000000 0.0000000000000000 3.3655780987639736 3.7597877048579513 1.3948414044421720 1.1804711986985186 6725.7170838898883 6706.2067755644957 1.1810345181859758 
-71.956892858836753 -214.30787839368804 72.096683091696718 -71.956892858836767 -214.30787839368804 72.096683091696718 -3741.4138478971613 0.00027814482438124694 0.00015382919971648580 -0.00078152052813224005 -4028.0916571896450 7.7960561228884742e-08 3.1753718099380983e-08 0.00014766618644301843 0.067362065171827232 -4.6402461642651577e-09 5.3765938380279459e-11 3.0434121951334299e-09 0.069478158661211778 -69.736773305200003 -211.58846536000007 86.592267764799999 1391.6778601551057 0.0000000000000000 0.0000000000000000 0.0000000000000000 0.0000000000000000 3.3633003783262723 3.7550155789066006 1.3923428896653702 1.1804711986985181 9267.9832627512678 9270.4097126420547 1.1799760784734807 
-89.506396281729238 -209.90330006058178 76.277819937221096 -89.506396281729252 -209.90330006058181 76.277819937221111 -2314.1631399244425 0.0018106498847545876 -0.00091842240606813768 -0.00064251270336261699 -2600.8579707881281 9.4550258844527946e-08 3.0702464792753403e-08 0.00014292642669389011 0.054785659544782352 -2.7879751277006405e-08 1.5828097540123674e-08 2.6353943711489234e-09 0.065561402818296560 -86.813844096400004 -207.27391660800001 90.308128229600001 1955.0875990986240 0.0000000000000000 0.0000000000000000 0.0000000000000000 0.0000000000000000 3.3660432275717178 3.7607844099892653 1.3953759347113248 1.1804711986985184 6123.1761289690376 6149.7238784236260 1.1812639032846568 
-76.722009396302667 -215.32555792326741 87.922605707119061 -76.722009396302667 -215.32555792326738 87.922605707119061 -2792.0520534478965 4.2640572186776806e-05 9.8865342563614935e-05 -0.00010839336259278035 -3335.8113645561339 8.2465065553982684e-08 3.1996616245422160e-08 0.00012972583343895394 0.055702614873603964 -2.0784504173977008e-09 -1.3612313024411068e-09 4.3831364275450506e-09 0.059933459131852405 -74.373612905599998 -212.58534351999998 100.65708370800000 988.41240310934302 0.0000000000000000 0.0000000000000000 0.0000000000000000 0.0000000000000000 3.3640051675427154 3.7564896458579775 1.3931137803749341 1.1804711986985192 7906.0425384758946 7876.1560944331377 1.1803049835047610 
-67.864681695158268 -187.83827293284710 96.198140731171861 -67.864681695158225 -187.83827293284702 96.198140731171861 -1456.4756351262481 0.00055727335389513211 -0.0012387397019560670 -0.00078430827405803316 -6.2929976974840869e-18 7.4092161850281002e-08 2.5436169392989427e-08 0.00012034464135979309 0.041405897154785161 -1.0370266097672549e-08 2.2889536918773319e-08 9.3719938826274213e-09 4.2847275040313419e-20 -65.754724465942374 -185.65989863464350 108.01171823852535 1808.0980320372519 0.0000000000000000 0.0000000000000000 0.0000000000000000 0.0000000000000000 3.3640340573883418 3.7564831691615090 1.3930721671398341 1.1803121405039068 4263.1554082185112 4128.9528743271685 1.1802775738664617 
-86.061163962997682 -211.01268573986059 97.338178411498816 -86.061163962997696 -211.01268573986061 97.338178411498816 -1490.7007873159625 0.0018783024279558727 -0.0012097026587958289 -0.0013048511557605610 -1207.4339592487711 9.1293456461194467e-08 3.0967247655055985e-08 0.00011905228837605363 0.041576260281188569 -2.9646749526573983e-08 1.6400594307792578e-08 1.0256451507089457e-08 0.037282174939212091 -83.461357431600007 -208.36062644399999 109.02489266960001 1287.0831768928649 0.0000000000000000 0.0000000000000000 0.0000000000000000 0.0000000000000000 3.3652796250221999 3.7592174805469374 1.3945730600087562 1.1804711986985186 4336.4406944951634 4416.2881100647564 1.1809199201353999 
-42.999425300512137 -131.06418436823253 48.649916493558422 -42.999425300512137 -131.06418436823247 48.649916493558415 -576.56081633488236 0.00031926196521936666 -0.00019510836185966028 -0.00017341161542762471 -809.07110275766058 5.0586819733133837e-08 1.1885836093128432e-08 0.00017424557016454401 0.021989067971795378 -8.4931326268399028e-09 3.6612290015119855e-09 7.8022423083583561e-09 0.028568271894916401 -41.558840772800004 -130.04627243999997 65.754654395919971 2180.9238908936368 0.0000000000000000 0.0000000000000000 0.0000000000000000 0.0000000000000000 3.3646695805671105 3.7578647978816018 1.3938237027480196 1.1804711986985192 3066.4386406443527 3064.4997831238697 1.1806029723266183 
-23.709394764992552 -135.55481507587379 37.568069274684341 -23.709394764992549 -135.55481507587379 37.568069274684341 -1127.6398509323240 7.9155860706046810e-05 -3.1513063305321693e-05 6.4850577631967314e-05 -1220.7952186175228 3.2351782808248679e-08 1.2957621420284227e-08 0.00018680801319703733 0.035852451370081417 -2.9404988054774609e-09 -1.2806225847659525e-09 8.0478631461080376e-10 0.033462564933747101 -22.788097858800000 -134.44511465599999 55.905993737599999 935.86986824075086 0.0000000000000000 0.0000000000000000 0.0000000000000000 0.0000000000000000 3.3641528232800479 3.7567894729759823 1.3932653534976485 1.1804711986985190 3981.0578802957416 3980.0178374164470 1.1803669632577984 
-11.621664609107309 -104.06855787892893 44.547373804129819 -11.621664609107311 -104.06855787892893 44.547373804129833 -951.94113962170638 0.00010673838938539535 -0.00041586554610585110 -0.00052076099701451359 -736.43248654355421 2.0925147281580792e-08 5.4427451434690965e-09 0.00017889623515188191 0.032626447662560634 -1.4870354130909106e-09 5.4558086351715811e-09 8.2870812353575651e-09 0.028927990410172563 -11.025769398400001 -103.60243655599999 62.108642139439993 1284.9349949311236 0.0000000000000000 0.0000000000000000 0.0000000000000000 0.0000000000000000 3.3642679425432713 3.7570417449600342 1.3934034568257241 1.1804711986985186 3681.0004904345569 3680.5761977104912 1.1804251699037349 
-30.087243385697743 -142.00586836507208 53.507005657213789 -30.087243385697743 -142.00586836507208 53.507005657213782 -703.11618694476726 9.2201875395639546e-06 0.00020215472273199962 -0.00045309319007974427 -739.32430957813312 3.8380821298922292e-08 1.4497307132543824e-08 0.00016873954714924364 0.024670718584333947 -1.0154254241095548e-09 -1.1798561114499187e-09 1.0533890807230828e-08 0.034617532396346802 -28.994254794799993 -140.76430841599998 70.071247290159988 2176.9829965296321 0.0000000000000000 0.0000000000000000 0.0000000000000000 0.0000000000000000 3.3649812209238741 3.7585769941381710 1.3942279668733706 1.1804711986985184 3293.3425198620525 3301.9956299744849 1.1807731826048651 
-106.55797331461555 -196.40745126323287 80.477441235968314 -106.55797331461555 -196.40745126323284 80.477441235968300 -752.13893645975304 -2.6437389839372400e-05 -0.00014396463576092603 -0.00061554137627365866 -1079.0922733767859 1.1066926541847266e-07 2.7481393383155250e-08 0.00013816571287961207 0.037160771129630427 1.2530764965849800e-10 2.4057962389113897e-09 1.6216512216740738e-08 0.037311354627202982 -103.40639267600000 -194.05392295999994 94.040416199999996 2662.2783756828549 0.0000000000000000 0.0000000000000000 0.0000000000000000 0.0000000000000000 3.3640087481397503 3.7565063727329386 1.3931267393002054 1.1804711986985186 3001.4774284378323 3006.0569356525971 1.1803085476137389 
-85.081946831030336 -163.99234588547696 62.205634182416404 -85.081946831030322 -163.99234588547694 62.205634182416382 -997.19859915085863 0.00014359653438240211 -5.4412803883884522e-05 7.9111673247000001e-06 -1066.2970121024146 9.0367800020807465e-08 1.9744830437318228e-08 0.00015887873395925567 0.041449833771736264 3.5618497070028436e-09 5.4572148236568621e-09 7.0085628579541916e-09 0.037951549134608513 -82.508500824799995 -162.30138233600007 77.801893530400037 2229.3857910936085 0.0000000000000000 0.0000000000000000 0.0000000000000000 0.0000000000000000 3.3661530504843280 3.7610061337045111 1.3954865793419375 1.1804711986985188 3684.6122093064328 3708.6292205932655 1.1813086910149562 
-29.056331672833711 -125.97597347243861 118.19346617865496 -29.056331672833718 -125.97597347243855 118.19346617865496 -19.937827119014454 1.6392296865946124e-05 -5.5751731842065778e-05 1.6865399054465644e-07 -1.3568039512070775e-18 3.7406290176456025e-08 1.0671427519426402e-08 9.5410619330493760e-05 0.0034324162124738248 -4.6845922766982537e-09 2.6468110190110012e-09 -1.6680086877472188e-09 3.2391138067062207e-20 -27.991095225219734 -125.06206457489009 127.55940664489751 1124.7619503421174 0.0000000000000000 0.0000000000000000 0.0000000000000000 0.0000000000000000 3.3601933838259437 3.7475092930547085 1.3878959315973070 1.1806165737809786 1724.7519133731109 1741.5925072804307 1.1781050975457961 