# For a description of the Tecplot format see the Tecplot User's guide.
#
Variables=x,y,z,s_u,s_v,s_w,s_p,mono_f_vel_u,mono_f_vel_v,mono_f_vel_w,const,u_nu,v_nu,w_nu,p_nu,x_nu,y_nu,z_nu,const,u_ref,v_ref,w_ref,vol_ref,x_ref,y_ref,z_ref,const,I1,I2,I3,J,p1,p2,p3
Zone f=fepoint, n=1339, e=6475, et=brick, c=black
-60.3946 -70.2701 173.444 -60.394618499082192 -70.270099262564798 173.44378284373559 -193.52928217849606 1.3446927433947130e-06 9.9549171320939813e-07 9.6284466329383916e-07 -197.81509451321378 8.3135737183326341e-10 -2.4704460699354062e-11 1.6832580946868349e-06 0.00018490676581884785 6.4104140676531776e-12 -2.1356560191294841e-11 3.9376500612486298e-11 0.00019466320620708472 -58.668039002000000 -70.473359259200009 176.35421013599998 215.13583165143561 0.0000000000000000 0.0000000000000000 0.0000000000000000 0.0000000000000000 3.3277755573997254 3.6790829494122930 1.3517894184852322 1.1611358603119051 1504.1370311314074 1504.1370311123139 1.1626724476266739 
-66.846809171004693 -76.323340419417192 181.97253063213964 -66.846809171004693 -76.323340419417192 181.97253063213969 -205.43267496871010 -1.8184791531746862e-05 -1.1851879371780425e-05 1.1904185817398684e-05 -206.96718947387805 9.0700996713266591e-10 -1.1105560915325441e-11 1.1867708344937000e-06 0.00017027523989690573 2.2709393956346704e-11 -6.3712064053208633e-12 2.0807437369131158e-12 0.00018116849604374799 -64.963123215600007 -76.414687385200040 184.02450960799996 253.42820447565578 0.0000000000000000 0.0000000000000000 0.0000000000000000 0.0000000000000000 3.3315227965696845 3.6873836520440175 1.3563747586358150 1.1611358603119044 1535.6027113259031 1535.6027112574313 1.1646567414786322 
-71.664588209915806 -71.401809430582745 174.42500882515850 -71.664588209915806 -71.401809430582730 174.42500882515853 -198.07334160103156 -8.4920105208369560e-06 -1.3966480403132941e-06 -1.1856170838696182e-06 -206.26931333294849 9.6348923284139708e-10 -2.2167823132690501e-11 1.6261376210024991e-06 0.00019550170940122746 2.4428277053534280e-11 -1.3915828791790012e-11 3.7497775352249017e-11 0.00020303140253146717 -69.663592608799988 -71.584146237200002 177.23667228800005 218.29881668600640 0.0000000000000000 0.0000000000000000 0.0000000000000000 0.0000000000000000 3.3334473755559251 3.6913844207596536 1.3584549184396464 1.1611358603119057 1529.2853546366589 1529.2853541524673 1.1655567206192097 
-58.854073556801978 -87.848505967188771 168.23625560384826 -58.854073556801957 -87.848505967188842 168.23625560384818 -171.24428151802422 -9.5816558139675884e-06 2.0191927840690361e-05 3.9524437731588176e-05 0.0000000000000000 8.1329648571326629e-10 1.4793499758525286e-11 1.9864058735663548e-06 0.00014618304299156734 -8.2176088889863142e-12 -8.9449586234141543e-11 -1.5969807716031060e-11 0.0000000000000000 -57.165005282198301 -87.726774323660578 171.67083873969227 259.76550921814646 0.0000000000000000 0.0000000000000000 0.0000000000000000 0.0000000000000000 3.3108577542832203 3.6415755029318571 1.3310476707375754 1.1556984205071530 1410.0370972816941 1410.0370976194918 1.1537002947481056 
-91.379382168926540 -83.417737455167455 107.57229737630099 -91.379382168926497 -83.417737455167469 107.57229737630101 -128.43822586177055 1.1180332736951373e-05 3.3076871946817016e-05 -1.7087838062525224e-05 0.0000000000000000 1.1946341138546757e-09 4.8412385211804584e-12 5.5178601030547733e-06 0.00024518516457428213 6.0520179894040531e-11 1.3072120964874271e-11 3.6091402320902912e-11 0.0000000000000000 -88.898344731952406 -83.377922378373768 117.11292023788836 283.91631954144174 0.0000000000000000 0.0000000000000000 0.0000000000000000 0.0000000000000000 3.3161287248833129 3.6517915330280135 1.3359842733123959 1.1573683705431406 1337.4804004429288 1337.4800710356462 1.1558462891352335 
-100.29378999788895 -66.631163567204169 97.684263304768962 -100.29378999788896 -66.631163567204155 97.684263304768947 -182.40627942833888 6.4871567900986942e-06 1.9592267131508338e-05 -8.1889556943946272e-05 -193.59656945688559 1.2991571707310354e-09 -3.2892355505964581e-11 6.0934760242048469e-06 0.00010060460463442396 -1.0117688870057983e-11 3.1620038520952643e-11 -2.5528931239471262e-10 0.00012785192326894091 -97.595692787999965 -66.901700632800015 108.22015140479995 322.25788568967050 0.0000000000000000 0.0000000000000000 0.0000000000000000 0.0000000000000000 3.3292030636035932 3.6827433287742526 1.3540540434319721 1.1611358603119044 1487.4066540422807 1487.4080250761726 1.1636504587921104 
-81.913072062012034 -67.272775297283800 98.123830707182094 -81.913072062012077 -67.272775297283786 98.123830707182137 -181.55635590414931 -1.3849739505291297e-05 1.9941971185758605e-05 -3.3806019563239207e-05 0.0000000000000000 1.0836533337332810e-09 -3.1443958548038609e-11 6.0678873126107638e-06 0.00014677066425988148 -5.4432088328577901e-11 -5.4143245524364349e-11 -2.2522116565375513e-10 0.0000000000000000 -79.662532843379708 -67.531450170133141 108.61547480962874 295.38956150422752 0.0000000000000000 0.0000000000000000 0.0000000000000000 0.0000000000000000 3.3180068770986817 3.6573279463060406 1.3397181002692937 1.1577153595391010 1449.5119240259230 1449.5132396099334 1.1574489083685970 
-97.098071518546121 -81.850340405428156 98.135876572539104 -97.098071518546078 -81.850340405428156 98.135876572539075 -163.74902261012829 -2.1364988367563490e-05 2.9697013802671683e-05 -6.0489444796899491e-05 0.0000000000000000 1.2616813704902086e-09 1.3127277043167851e-12 6.0671860850902704e-06 3.9480332512127500e-05 -3.1910737607327065e-11 -2.6160917627616333e-10 -4.8039162239517189e-10 0.0000000000000000 -94.477787882002133 -81.839503548705352 108.62630821647583 293.80807890400462 0.0000000000000000 0.0000000000000000 0.0000000000000000 0.0000000000000000 3.3195293893937210 3.6599027850264454 1.3407512579620464 1.1579756246263635 1405.4209483306508 1405.4192254668369 1.1578965716207177 
-48.832011520801359 -126.78146840196604 131.58545557820639 -48.832011520801395 -126.78146840196598 131.58545557820628 -42.159525628839013 1.3324063303907521e-05 4.0996270223503731e-06 1.3083702122012818e-05 0.0000000000000000 1.8717979122235184e-07 -5.4363973792302389e-07 4.7075212614440741e-06 0.00035110310313537206 2.9256448777503010e-11 -4.9397355349767122e-11 1.3759965673718781e-10 0.0000000000000000 -47.292355390977058 -125.96433165720771 138.67232254046354 244.31333887135355 0.0000000000000000 0.0000000000000000 0.0000000000000000 0.0000000000000000 3.3402410365961153 3.7077317212708030 1.3681183298215676 1.1703181379564618 1284.7213123902861 1284.7211049363150 1.1696651795590587 
-35.356363682238459 -141.56159752020798 132.14437630530708 -35.356363682238459 -141.56159752020801 132.14437630530708 -40.140813105141390 1.6970895772407376e-05 6.4116406217852322e-06 7.7441506713055212e-06 0.0000000000000000 1.2316346626253169e-07 -2.9292664088710640e-07 4.2037994924345082e-06 0.00019047690989797643 5.7312506903345464e-11 -2.0609957275132272e-10 2.4405459505092341e-10 0.0000000000000000 -34.196989160350306 -140.43319657724166 139.21506628885933 210.16870282748488 0.0000000000000000 0.0000000000000000 0.0000000000000000 0.0000000000000000 3.3377065392669518 3.7022137824887555 1.3651072198653589 1.1684848120025730 1273.1255893520354 1273.1258138588610 1.1683806121927194 
-31.983005948832286 -128.51470917682138 136.05489298300884 -31.983005948832297 -128.51470917682130 136.05489298300887 -58.713256625676394 1.3665040134202533e-05 3.3007064966985589e-06 2.6754395836967108e-05 0.0000000000000000 4.9825094050603980e-10 1.0618861345790266e-10 3.8597918532445882e-06 0.00023827164141811176 3.6619767187409975e-11 -7.1099477943947658e-11 1.3098113461831755e-10 0.0000000000000000 -30.948229910445860 -127.64113600963313 142.72864290474456 229.21992526850030 0.0000000000000000 0.0000000000000000 0.0000000000000000 0.0000000000000000 3.3301165794045038 3.6850210108505204 1.3554280194662887 1.1654356744774723 1281.8550835294689 1281.8550313688249 1.1642280063054264 
-49.972824918932652 -131.80848641265550 140.67095789436843 -49.972824918932673 -131.80848641265541 140.67095789436837 -37.258820055758797 1.9802530353154932e-05 4.0060348897884507e-05 -1.9712758046916664e-05 0.0000000000000000 2.5576829315914989e-07 -5.1041532957404422e-07 4.1780190316686010e-06 0.00022960057672367451 3.6839014944686360e-11 -3.2222365576548901e-11 8.6977236250278901e-11 0.0000000000000000 -48.406431667502837 -130.90513559487593 146.85896726379221 225.63426853136377 0.0000000000000000 0.0000000000000000 0.0000000000000000 0.0000000000000000 3.3450229340090805 3.7179479349510798 1.3735665756554090 1.1714147478476487 1281.2405115917461 1281.2405116982811 1.1719924518754621 
-54.581190728657390 -84.856421574283161 63.512591720858119 -54.581190728657397 -84.856421574283118 63.512591720858140 -157.29047221995319 -7.4191573792210304e-06 0.00014819137439318076 -0.00017743380349953243 0.0000000000000000 6.0593290129037686e-08 -1.1629431088796067e-06 5.2544431104506757e-06 -0.0018394758047409658 2.3454872603943654e-10 -4.4309244881096551e-09 -3.9101220430450017e-09 0.0000000000000000 -53.009977022357148 -84.940192361847963 77.707205907375524 356.07450292316213 0.0000000000000000 0.0000000000000000 0.0000000000000000 0.0000000000000000 3.3308255698659655 3.6851965570253316 1.3548115025517216 1.1624333742138044 1378.4158636539989 1378.4327884376569 1.1638811257042356 
-41.556608286883993 -85.685101318925987 52.265689154633115 -41.556608286883986 -85.685101318925987 52.265689154633101 -305.64143000509517 1.7062744214643894e-05 3.7714203127537229e-05 -0.00012563246532104695 0.0000000000000000 -5.8815234389501150e-07 -3.3176598835647124e-07 8.7377394334505940e-06 -0.0015607609442155157 -1.1924836742374062e-09 -5.7959203924432010e-10 1.3614192237879881e-09 0.0000000000000000 -40.313282635619565 -85.652866469445740 67.489144002613742 334.72004880612383 0.0000000000000000 0.0000000000000000 0.0000000000000000 0.0000000000000000 3.3115675677344614 3.6448795392997746 1.3337362491629292 1.1572200364804051 1650.1871554183479 1650.1928010378538 1.1548483799490896 
-44.182954278058858 -94.225949766813187 69.778894104952499 -44.182954278058865 -94.225949766813244 69.778894104952528 -119.08333014493655 0.00013910735261767233 1.4780988472068944e-05 -6.7249593682815263e-05 0.0000000000000000 -5.0967557831096622e-07 1.1008151694987423e-06 5.0643143066624195e-06 -0.0010379935641001052 -2.3419204640597546e-09 1.2656646245750173e-09 -3.5241716816903621e-09 0.0000000000000000 -42.930125987095458 -94.071309017270835 83.274511392489799 283.94561953274422 0.0000000000000000 0.0000000000000000 0.0000000000000000 0.0000000000000000 3.3355905394355907 3.6962598578775459 1.3611890977630279 1.1629149206969065 1346.0665616060503 1346.0757963201975 1.1666859093881703 
-46.330462153801321 -99.303224955067236 52.980034609851060 -46.330462153801342 -99.303224955067279 52.980034609851074 -208.25311804844426 0.00015918832553792815 5.7834768069159213e-05 -0.00020249836515179651 0.0000000000000000 6.6646971275119427e-10 4.0536907164323566e-11 8.6958604050835220e-06 -0.0015990681587273374 -1.5924421898724750e-09 2.6116602413406864e-09 1.4599694087659383e-09 0.0000000000000000 -44.946335306532468 -98.969717126470769 68.015559797458934 339.42980011114588 0.0000000000000000 0.0000000000000000 0.0000000000000000 0.0000000000000000 3.3285111735512336 3.6826285803524708 1.3546999736294791 1.1617757595860716 1473.5899137349945 1473.4851089826675 1.1638881805731787 
-36.734208203067894 -101.17209643756786 61.048854711207156 -36.734208203067880 -101.17209643756784 61.048854711207170 -210.80873221246276 9.2513924231050010e-05 3.5117091777409514e-05 -8.1465678309564367e-05 0.0000000000000000 -3.0418483712700453e-07 8.2110665129900057e-07 7.5401375240405477e-06 -0.00076436560370366077 -7.4951423054201801e-10 1.2888726878044833e-09 -7.6470652051568895e-10 0.0000000000000000 -35.672109309640206 -100.83293553867907 75.360366609178811 338.44965823895870 0.0000000000000000 0.0000000000000000 0.0000000000000000 0.0000000000000000 3.3062041602055436 3.6330658659308783 1.3272586137006319 1.1569794519213634 1469.9063855796119 1469.9181686662680 1.1520583666451640 
-50.460483110642514 -112.57087855288097 50.053001660479225 -50.460483110642500 -112.57087855288093 50.053001660479239 -173.84059184128279 0.00018062930384508277 8.9191660939956930e-06 -0.00010899818035439821 -104.69242023581569 7.1488898134575141e-10 7.0355499204310945e-11 8.8662528980876232e-06 -0.00032066425196153461 9.9144555244551890e-10 6.3615502316075416e-10 -1.1985637211967857e-09 0.00036640629440251241 -48.975793059600008 -111.99207679200002 65.383142959360015 326.57209562220959 0.0000000000000000 0.0000000000000000 0.0000000000000000 0.0000000000000000 3.3241807825877792 3.6705396688398131 1.3467728661712253 1.1613460904055015 1421.1742391235662 1421.1312058058879 1.1604775835065824 
-26.131841006028736 -111.03222631890617 52.373034487247423 -26.131841006028719 -111.03222631890627 52.373034487247423 -300.13247588728882 3.2634964686807236e-05 1.4992425310888150e-05 -9.6243157741007966e-05 0.0000000000000000 4.2964981572524152e-10 6.6905370132985809e-11 8.7311959369174019e-06 -0.00039791720525503472 -8.6025718130238420e-11 3.1134309769541721e-10 -3.1460703874535190e-10 0.0000000000000000 -25.239536857883341 -110.48187134057846 67.469656361758609 349.35568362690350 0.0000000000000000 0.0000000000000000 0.0000000000000000 0.0000000000000000 3.3165324270265453 3.6552010557894938 1.3391088542082630 1.1582499379173803 1661.2084987078688 1661.2201552099500 1.1571922340592813 
-45.438254956060227 -111.83377568127419 62.361115465138489 -45.438254956060220 -111.83377568127423 62.361115465138489 -136.72241862836543 8.8668602677911576e-05 -8.6393159534918802e-05 -4.5384923755698539e-05 0.0000000000000000 6.5600697096712679e-10 6.8696826005520948e-11 8.1497559563104005e-06 1.7248978182853648e-05 7.8886778725482305e-10 -8.0789881000486335e-10 -1.5539060984454895e-10 0.0000000000000000 -44.075852747763513 -111.26860156453857 76.452402029906395 268.59635586333832 0.0000000000000000 0.0000000000000000 0.0000000000000000 0.0000000000000000 3.3334449088497236 3.6931460707882309 1.3602914810798550 1.1624264102129600 1408.1221936490278 1408.1349214235299 1.1663291656758086 
-60.067100868708742 -106.95485341862755 94.427586626608132 -60.067100868708785 -106.95485341862754 94.427586626608118 -28.618653307325644 2.2251823498525262e-05 4.1606214038966239e-05 9.6118974775408842e-06 0.0000000000000000 -2.1962794485420064e-07 5.7618938682519434e-07 5.1972894869657170e-06 0.00068822330774756340 -1.0419237566627887e-10 5.5027383245040112e-11 -1.1784733364683620e-10 0.0000000000000000 -58.254647241440821 -106.62760994408018 105.33920711112118 241.62621693813244 0.0000000000000000 0.0000000000000000 0.0000000000000000 0.0000000000000000 3.3503588541827294 3.7299670482049128 1.3803230697135518 1.1737116099579692 1277.3779555650769 1277.3779917267600 1.1748668762272982 
-66.394986008141657 -90.033993098945430 84.701594154629532 -66.394986008141643 -90.033993098945473 84.701594154629504 -73.081253915112868 -2.9221729870443187e-05 -8.9885977732056190e-06 6.3454155150454678e-05 0.0000000000000000 -6.6610243961119517e-07 7.4909204059000809e-07 4.8152548824893817e-06 0.00018231879085296940 -2.1488645531796866e-09 5.6800310485888524e-10 -8.9844782326329994e-10 0.0000000000000000 -64.370648572599308 -90.090304358695661 96.688480747766732 239.98138923263960 0.0000000000000000 0.0000000000000000 0.0000000000000000 0.0000000000000000 3.3435148665898056 3.7140418181894663 1.3710890950717669 1.1659671320303753 1309.0745480552932 1309.0775879954779 1.1708962193381967 
-78.251537238674445 -99.891519466467997 89.889719352704276 -78.251537238674430 -99.891519466467940 89.889719352704248 -61.250038306264635 -4.3448556410347458e-05 5.9446500792870605e-05 -1.6665757751458389e-05 0.0000000000000000 -6.8014237496364708e-07 4.7251310295531967e-07 5.2064457932322135e-06 0.00018021645180125878 -4.4149879637437706e-10 4.9421997866908148e-10 -5.8607597753155717e-10 0.0000000000000000 -75.913673002404863 -99.702254402691466 101.32606574872912 288.13617662859207 0.0000000000000000 0.0000000000000000 0.0000000000000000 0.0000000000000000 3.3466750079513483 3.7216474784640607 1.3756343776120425 1.1692232078118630 1306.0607527112440 1306.0611359504646 1.1728995131829196 
-56.906357672344754 -93.636442232264727 92.146597274413594 -56.906357672344726 -93.636442232264756 92.146597274413594 -68.722944808415591 1.2252163620440817e-06 3.3649397491973007e-05 3.2049930422242619e-05 0.0000000000000000 -1.4423812036303529e-07 5.5050530697433865e-07 4.9616342854360600e-06 0.00056402052444159869 2.1841280652020228e-10 -5.0833083030854263e-10 7.2077998731740408e-10 0.0000000000000000 -55.164710769962618 -93.586508083202432 103.32606452766413 222.68531933077850 0.0000000000000000 0.0000000000000000 0.0000000000000000 0.0000000000000000 3.3414718010687512 3.7086736767497110 1.3677333451736056 1.1685799637492902 1335.1956326787476 1335.1945019333662 1.1695007212622137 
-47.167280630768580 -177.67832106031659 150.42144933224330 -47.167280630768580 -177.67832106031656 150.42144933224333 -31.533610426216029 -3.2811456971740384e-05 -2.2333775822357449e-05 5.7642385399345082e-05 0.0000000000000000 6.7628030953059692e-10 2.1666690663835197e-10 3.0234660073347186e-06 5.9056606429816403e-05 2.1095155104960768e-10 4.5765738814533127e-11 -1.7321348760620098e-10 0.0000000000000000 -45.762777822239421 -175.89580528354742 155.64915507299250 248.91339099022119 0.0000000000000000 0.0000000000000000 0.0000000000000000 0.0000000000000000 3.3418055622615226 3.7086254249159833 1.3673320396112509 1.1669955012168209 1237.9574505454405 1237.9579116975542 1.1693159241467621 
-52.981572311495619 -187.52741845798940 164.32549949360867 -52.981572311495604 -187.52741845798940 164.32549949360870 -42.472121844238387 6.7735952761945737e-06 -8.2145089009617978e-06 -8.1075224082344408e-06 -52.064484979299998 7.4444689301955691e-10 2.3881008281989580e-10 2.2140642172985285e-06 9.8820300326107468e-05 -4.0900038944795735e-11 1.1584492486049845e-12 7.1599455784380747e-12 9.4485185885481203e-05 -51.435495451599998 -185.56281141599996 168.15371392000000 294.81703600272857 0.0000000000000000 0.0000000000000000 0.0000000000000000 0.0000000000000000 3.3233336392436734 3.6695711559887054 1.3467000469911401 1.1615388390446162 1220.2095252762433 1220.2093501893687 1.1604797756191036 
-44.005420311526990 -172.85987076333680 162.22826731978927 -44.005420311527004 -172.85987076333680 162.22826731978924 -39.056923931443734 8.2490559551620500e-06 -7.0346611695051881e-06 7.9839296287897204e-06 0.0000000000000000 3.6817495836777344e-08 -6.5024620853846493e-08 2.3908444790013461e-06 8.7398827630740721e-05 3.3157112952081976e-11 1.7096945072400697e-11 1.0582642058568977e-10 0.0000000000000000 -42.672974891599750 -171.18173466392949 166.26923354793541 271.88244999766295 0.0000000000000000 0.0000000000000000 0.0000000000000000 0.0000000000000000 3.3271618685955859 3.6777888952788476 1.3511078810685371 1.1630329847248835 1220.1101259348691 1220.1100500310206 1.1623733671489296 
-61.127151088958719 -179.83986199559973 152.75810265723015 -61.127151088958719 -179.83986199559970 152.75810265723018 -52.203237410534271 -1.0405167998911724e-05 -6.3322811798746191e-06 -3.6315420437828482e-06 0.0000000000000000 8.3994761146399820e-10 2.2153368028909881e-10 2.8874415107793538e-06 0.00011411972498716150 -3.4757551884338334e-11 -3.0468513432485703e-11 3.8707028441698470e-11 0.0000000000000000 -59.382734921100123 -178.01738339707751 157.75061606229067 243.94852352315442 0.0000000000000000 0.0000000000000000 0.0000000000000000 0.0000000000000000 3.3265105730193816 3.6757660335540310 1.3497004189461421 1.1627614080299471 1239.6974338389582 1239.6975597235366 1.1617690789510149 
-31.672599880865768 -103.08772930093305 83.245442778041948 -31.672599880865761 -103.08772930093302 83.245442778041948 -67.775199894776947 2.9284116289856199e-05 6.0980552997594096e-05 -0.00011583030933212116 0.0000000000000000 3.0042088664010838e-07 -3.2620299334988930e-09 6.1336894381258194e-06 -0.00012753098309800591 6.5608387533360770e-10 -2.3633391008302854e-09 -2.3556823636131883e-10 0.0000000000000000 -30.660097366607719 -102.72526557899965 95.328291536857705 204.58703120518373 0.0000000000000000 0.0000000000000000 0.0000000000000000 0.0000000000000000 3.3386871533664499 3.7008276454940163 1.3625818486762069 1.1656870724289723 1289.0998395695196 1289.1000911156616 1.1672852199395054 
-19.535919491134159 -111.46429423177474 81.154355468484340 -19.535919491134159 -111.46429423177470 81.154355468484326 -142.32471381849521 6.6826349434458935e-05 -4.5669812134721714e-07 -0.00011277757317240229 0.0000000000000000 3.5231789707879107e-10 6.7876593234927896e-11 7.0557378748503652e-06 -0.00016629249230264289 -1.3592448754321271e-09 5.2743698284575194e-12 6.8421562015272977e-10 0.0000000000000000 -18.804221549666405 -110.90595113131390 93.354036648627854 267.24800799435923 0.0000000000000000 0.0000000000000000 0.0000000000000000 0.0000000000000000 3.3212543928911193 3.6634737206135948 1.3426057671044942 1.1603916931834419 1401.6089439003329 1401.6089843667678 1.1587179092129563 
-34.839352718294244 -105.15022424782846 71.717246627965793 -34.839352718294229 -105.15022424782850 71.717246627965793 -139.83802443115053 7.5604436567092606e-05 -2.1814169243178386e-05 -8.5170339822698910e-05 0.0000000000000000 2.0421652784868272e-07 5.2223672722935639e-07 6.8260280366924461e-06 -3.4073275610188321e-05 7.5318647266720372e-10 4.7873799760615089e-11 5.6343450782470750e-12 0.0000000000000000 -33.815892125380543 -104.71065599625929 85.007910193808286 270.69679205096202 0.0000000000000000 0.0000000000000000 0.0000000000000000 0.0000000000000000 3.3145104834831280 3.6511269267066848 1.3370631548791301 1.1591391386950105 1361.9223316598575 1361.9197198209583 1.1562840460826742 
-19.655800689461081 -100.73974757033733 83.427147270025955 -19.655800689461085 -100.73974757033736 83.427147270025927 -107.83321648566537 2.9027150699046664e-05 -1.4467926385973238e-05 -2.4633113008666968e-05 0.0000000000000000 3.5372266227184923e-10 4.3774095459525591e-11 6.9234309876264871e-06 2.4256615299771193e-05 -3.5387578258214317e-10 -3.8259255172103204e-10 -1.9288431483146138e-10 0.0000000000000000 -18.921183722278450 -100.37968114352928 95.398064000337470 185.31956687594098 0.0000000000000000 0.0000000000000000 0.0000000000000000 0.0000000000000000 3.3276327051694903 3.6772060392496178 1.3499840878941571 1.1614476640005114 1356.7293140882500 1356.7294405980031 1.1619042431576605 
-32.143727767925327 -118.62763970052033 170.00710396803245 -32.143727767925348 -118.62763970052036 170.00710396803245 -86.752465626851262 5.9295970969843821e-05 6.6852068824753462e-05 4.2781959688830265e-06 0.0000000000000000 1.0715650380833289e-07 -9.4155045296409984e-08 2.0308810838872043e-06 -3.4518892726782557e-05 -3.1608855737780101e-11 -2.8671291166975162e-10 1.7262204146475877e-10 0.0000000000000000 -31.124431206993112 -117.97934695114738 173.21200361760444 258.17126679857051 0.0000000000000000 0.0000000000000000 0.0000000000000000 0.0000000000000000 3.3292067333364153 3.6813801143180980 1.3526152989777183 1.1639102202051714 1309.0250114652954 1309.0250099597285 1.1630189876554302 
-31.672821536235695 -134.08726910989191 160.62349298201408 -31.672821536235691 -134.08726910989196 160.62349298201397 -57.871890002010176 3.4793392876737969e-05 6.0362568111922225e-06 -6.4288632151522445e-06 0.0000000000000000 9.0760717796267596e-08 -3.4571089739368837e-08 2.5744837210153434e-06 7.7802719400376060e-05 8.7148925454573200e-11 1.0251967189911618e-11 3.3937873225374794e-11 0.0000000000000000 -30.642131568542830 -133.13454878399213 164.80820313575899 262.24283076768535 0.0000000000000000 0.0000000000000000 0.0000000000000000 0.0000000000000000 3.3336119133371973 3.6918097182700125 1.3587104440632294 1.1658606397223443 1280.2215542265983 1280.2215649864086 1.1656352619589991 
-44.025975505404951 -120.74142666198415 159.47185568672413 -44.025975505404958 -120.74142666198409 159.47185568672418 -33.654653123526742 7.2606310182687507e-05 2.6358698023694635e-05 -5.9651900521684259e-07 0.0000000000000000 1.0945166817970435e-07 -2.1346081425150001e-07 3.0116979897866765e-06 1.8647298029553116e-05 -1.8587087426657102e-10 1.4678057574329484e-10 1.3941926770227858e-10 0.0000000000000000 -42.676694985445003 -120.10595080876966 163.70375490782192 268.28772502602959 0.0000000000000000 0.0000000000000000 0.0000000000000000 0.0000000000000000 3.3517357520406441 3.7320612636338817 1.3809866562614734 1.1727023200028301 1275.8569183462268 1275.8569208744566 1.1751481376610438 
-24.602386293596428 -114.85499829153591 157.27488840187081 -24.602386293596425 -114.85499829153595 157.27488840187078 -101.14713052080410 2.6305039892906595e-05 2.1597582513192135e-05 1.8638808907462677e-05 0.0000000000000000 4.1171771547610097e-10 7.5492723183856469e-11 2.6245041304662209e-06 0.00011284926650728030 -2.0428829655081880e-11 -4.7734940071270646e-11 1.2284103004038771e-10 0.0000000000000000 -23.747323328369049 -114.23396745764113 161.81277151251504 321.01516800445251 0.0000000000000000 0.0000000000000000 0.0000000000000000 0.0000000000000000 3.3227070940978218 3.6675789440614315 1.3452921785972907 1.1614389002293739 1328.5624643453391 1328.5624639100472 1.1598759270228520 
-6.8871571627451038 -105.43441474693445 98.919991765966159 -6.8871571627451011 -105.43441474693442 98.919991765966174 -32.854002259758751 4.1986488577378932e-06 -5.6308025535352823e-06 -6.1867423729160425e-05 -2.8384496287415550 2.0401863531915865e-10 5.4315441033736533e-11 6.0215400949914502e-06 0.00033977221625258183 -7.1500125169005756e-11 2.1578092764028487e-10 -1.4877002679428924e-10 0.00029230009609412891 -6.4634479885999987 -104.98755276399999 109.33149947120000 327.67017865987640 0.0000000000000000 0.0000000000000000 0.0000000000000000 0.0000000000000000 3.3250155900587561 3.6731949308124494 1.3486445283115456 1.1618626042992743 1178.7075311940966 1178.7075583597175 1.1613126672751242 
-12.363902638804962 -97.415487660187466 90.142711665682626 -12.363902638804960 -97.415487660187452 90.142711665682640 -89.160423739270101 8.9048129855552880e-07 -1.1803120194659720e-05 -7.6145614100283859e-05 -81.090000168310297 2.6823104848361368e-10 3.6296077254860393e-11 6.5324952487344490e-06 0.00018685338988303990 -3.4599979941475456e-11 7.2445171952325687e-12 -7.1832441651644840e-11 0.00017523824374463044 -11.806838433999999 -97.116880539599975 101.43768333439998 212.90238721710071 0.0000000000000000 0.0000000000000000 0.0000000000000000 0.0000000000000000 3.3243322290822670 3.6713327929776360 1.3474495046432757 1.1611358603119044 1302.2167959091255 1302.2167319783077 1.1607968525666450 
-16.507564187121030 -110.90816409303825 91.988210974801973 -16.507564187121030 -110.90816409303825 91.988210974801916 -73.261300723604506 2.5836183782511776e-05 -1.0188899440949512e-05 -0.00014484060952017796 0.0000000000000000 3.1681302026242980e-10 6.6623817573940869e-11 6.4250624944861565e-06 0.00024215696389084980 -6.1739666094382367e-11 -2.9611127367309990e-11 -2.4188842173293896e-10 0.0000000000000000 -15.849604639409371 -110.36010279166017 103.09742667861765 236.22178992679409 0.0000000000000000 0.0000000000000000 0.0000000000000000 0.0000000000000000 3.3218690976767671 3.6664480681073868 1.3450332881472031 1.1613856855771336 1273.4023587363299 1273.4023707078877 1.1597576323176784 
-24.604697905804262 -99.878353329340513 91.081352782218005 -24.604697905804262 -99.878353329340527 91.081352782217948 -62.562053024029318 3.7389596386694787e-05 5.3798247121776908e-05 -8.6939641415277691e-05 0.0000000000000000 4.1174669229704364e-10 4.1829650854197098e-11 6.4778537804954794e-06 0.00029272664685057369 4.3370538125840474e-10 1.6097572849299911e-10 -1.3179994925893112e-10 0.0000000000000000 -23.749578654390465 -99.534212460059550 102.28184693721489 211.57004919854941 0.0000000000000000 0.0000000000000000 0.0000000000000000 0.0000000000000000 3.3275395777943735 3.6789116891117764 1.3518568731370726 1.1632712125995641 1264.0061484621976 1264.0060896921862 1.1626932514413928 
-55.814815480642913 -108.76455087790154 103.91587736860210 -55.814815480642899 -108.76455087790150 103.91587736860215 -15.275429051792685 9.1843781655444711e-06 1.6994315976580601e-05 -1.5832403507521125e-05 0.0000000000000000 1.0673437061007307e-07 4.3197698953049236e-07 5.1817585956440245e-06 0.0011114525081073125 8.3092568790480370e-10 7.7642951106967974e-10 -9.1962714081920208e-10 0.0000000000000000 -54.087034329299712 -108.37170302860723 113.84396407125838 191.01171882188567 0.0000000000000000 0.0000000000000000 0.0000000000000000 0.0000000000000000 3.3521132365662116 3.7331852406742745 1.3817665778960349 1.1746463794946227 1256.0822211693567 1256.0827374794646 1.1754886980006019 
-43.091601263816777 -108.14224314614889 100.70798063600446 -43.091601263816763 -108.14224314614886 100.70798063600445 -22.256800647065273 -1.2277868206519184e-05 1.5757677516850547e-05 1.0666970978376584e-05 0.0000000000000000 6.9130760875813898e-08 3.5596616977506215e-07 5.3906403575686914e-06 0.00067629458552908369 9.9340768576003439e-11 -2.2883932972569225e-11 6.0711681716845392e-11 0.0000000000000000 -41.690910404717421 -107.74885629568415 110.97670241767709 270.34727434602189 0.0000000000000000 0.0000000000000000 0.0000000000000000 0.0000000000000000 3.3482239056505856 3.7233799278110391 1.3757497393306082 1.1725394319344988 1265.8298241294251 1265.8298088767908 1.1729237622856741 