# For a description of the Tecplot format see the Tecplot User's guide.
#
Variables=x,y,z,s_u,s_v,s_w,s_p,mono_f_vel_u,mono_f_vel_v,mono_f_vel_w,const,u_nu,v_nu,w_nu,p_nu,x_nu,y_nu,z_nu,const,u_ref,v_ref,w_ref,vol_ref,x_ref,y_ref,z_ref,const,I1,I2,I3,J,p1,p2,p3
Zone f=fepoint, n=1339, e=6475, et=brick, c=black
-59.1368 -70.4179 175.610 -59.136785618695733 -70.417935376019400 175.61005855508370 -211.56265276814901 -7.9834580768475434e-05 1.3293432648987567e-05 -1.4945217206980588e-05 -261.20241003482658 1.0407970982284631e-07 -5.3933900678870836e-09 1.1488431765016571e-05 0.0043933923529325212 3.6180344196661330e-09 -1.4794054228252879e-09 3.0359037386587684e-09 0.0067632528200123601 -58.668039002000000 -70.473359259200009 176.35421013599998 215.13583165143561 0.0000000000000000 0.0000000000000000 0.0000000000000000 0.0000000000000000 3.0830472084158980 3.1676959570546717 1.0846577486476821 1.0409042452268722 906.22215677093834 906.25729690677031 1.0414692310225990 
-65.474522441645107 -76.389779367664545 183.49985008362293 -65.474522441645121 -76.389779367664545 183.49985008362287 -175.72723295220121 -9.1774198798041145e-05 5.5028377721835162e-05 -7.7690975460138631e-05 -199.99569322462779 1.1355022208614507e-07 -2.4238416274080525e-09 8.0998486042815881e-06 0.0035607048911950982 3.7493920754733846e-09 -1.6158202221232848e-09 3.6190102028413745e-09 0.0029755712804775268 -64.963123215600007 -76.414687385200040 184.02450960799996 253.42820447565578 0.0000000000000000 0.0000000000000000 0.0000000000000000 0.0000000000000000 3.0836318356006482 3.1689528871559087 1.0853311164375583 1.0409042452268740 804.23739697646295 804.23673167817037 1.0417940674523896 
-70.206840064032221 -71.534427581110421 176.51777310215220 -70.206840064032221 -71.534427581110421 176.51777310215220 -215.99399408532156 9.0964194562400050e-05 2.5326427566868681e-05 -9.2891212676953894e-06 -225.41295722683074 1.2062175261395858e-07 -4.8381960660037748e-09 1.1098577838097867e-05 0.0041318170752066632 -3.2066263074110376e-09 -9.6682744158330458e-10 6.7845907798180182e-10 0.0052538756658487137 -69.663592608799988 -71.584146237200002 177.23667228800005 218.29881668600640 0.0000000000000000 0.0000000000000000 0.0000000000000000 0.0000000000000000 3.0844129814547938 3.1706205211601444 1.0862189479512308 1.0409042452268740 893.58261932948460 893.58298828685281 1.0422189601668967 
-57.623568030352388 -87.759967477758607 170.79266855584333 -57.623568030352367 -87.759967477758579 170.79266855584328 -162.41458382539867 -4.3051304229961236e-05 7.1364476240328873e-05 -3.5009285309284983e-05 0.0000000000000000 1.0181850032542351e-07 3.2300739305490822e-09 1.3557450527557080e-05 0.0028856493392525892 6.9660030053975202e-11 -1.6039017765792703e-09 -4.4460961683105741e-09 0.0000000000000000 -57.165005282198301 -87.726774323660578 171.67083873969227 259.76550921814646 0.0000000000000000 0.0000000000000000 0.0000000000000000 0.0000000000000000 3.0806195643758980 3.1623214030121614 1.0817041886225633 1.0410192858854685 764.02205508825898 763.99173052996514 1.0400514715997309 
-89.571918063758076 -83.388778947307969 114.67352942945044 -89.571918063758105 -83.388778947307912 114.67352942945038 -306.58363920557832 0.00067340503630161251 0.00010699236605217049 0.00031654574964184588 0.0000000000000000 1.4955908286817809e-07 1.0564684127523094e-09 3.7660035379083467e-05 0.014292607761746488 -4.5512897115584166e-09 -1.1132523947836162e-08 -2.9217662502233775e-08 0.0000000000000000 -88.898344731952406 -83.377922378373768 117.11292023788836 283.91631954144174 0.0000000000000000 0.0000000000000000 0.0000000000000000 0.0000000000000000 3.0772603469846604 3.1554665732692326 1.0781910957745284 1.0358744190701463 901.36997630921280 901.32834808901691 1.0384110716177686 
-98.328195369426965 -66.827931986889269 105.52628655312198 -98.328195369426979 -66.827931986889283 105.52628655312198 -224.99811277878777 7.4982431206942923e-05 0.00012619392678308599 -0.00044039725582876391 -262.95575040914190 1.6264364530171885e-07 -7.1785445920902191e-09 4.1588680778303910e-05 0.0063736959538198959 8.9753741331208745e-10 1.1276163741216762e-09 1.1424966226859665e-08 0.0039333604556505272 -97.595692787999965 -66.901700632800015 108.22015140479995 322.25788568967050 0.0000000000000000 0.0000000000000000 0.0000000000000000 0.0000000000000000 3.0797636567201070 3.1610980208210235 1.0813492847840409 1.0409042452268742 850.24207137211226 849.88353515608640 1.0398600273483878 
-80.273528541091665 -67.460916045505144 105.93292246894733 -80.273528541091707 -67.460916045505186 105.93292246894730 -300.89114840678366 -0.00017748291222431957 2.3200614882177162e-05 0.00010571858667438821 0.0000000000000000 1.3566445308810238e-07 -6.8637901473600493e-09 4.1414034896547491e-05 0.017498808337498006 -5.9752860964142757e-08 3.0923738557250153e-08 2.6677830714670779e-08 0.0000000000000000 -79.662532843379708 -67.531450170133141 108.61547480962874 295.38956150422752 0.0000000000000000 0.0000000000000000 0.0000000000000000 0.0000000000000000 3.0841399762915107 3.1696980892813884 1.0855601164557849 1.0386841731696117 816.24336983373507 816.19210044410272 1.0419249746184687 
-95.189164966861981 -81.842458486671461 105.94406588282301 -95.189164966861938 -81.842458486671433 105.94406588282301 -176.79268347056635 -8.1573161639442811e-05 0.00014258182292708086 -0.00019923865722971848 0.0000000000000000 1.5795296812171067e-07 2.8754770786676431e-10 4.1409248916046693e-05 0.0076681490436206626 -5.7248349704730315e-09 2.4428620438368086e-09 2.7640321460537416e-09 0.0000000000000000 -94.477787882002133 -81.839503548705352 108.62630821647583 293.80807890400462 0.0000000000000000 0.0000000000000000 0.0000000000000000 0.0000000000000000 3.0889700674759935 3.1797058541007797 1.0907380363755370 1.0421349266016762 736.35308218488365 737.32697593349485 1.0443874521316483 
-47.766071969383781 -125.84775609225801 136.69802260948757 -47.766071969383795 -125.84775609225792 136.69802260948748 -169.28659055689866 -0.00014293877394894040 0.00027280994196258941 -0.00023283981965443055 0.0000000000000000 3.5613960235015913e-06 -1.8418309762445819e-05 4.1307948134328844e-05 0.014064341367422939 2.1590638626064631e-09 -1.4805960259652045e-08 -1.5420242065530207e-08 0.0000000000000000 -47.292355390977058 -125.96433165720771 138.67232254046354 244.31333887135355 0.0000000000000000 0.0000000000000000 0.0000000000000000 0.0000000000000000 3.0791300231789047 3.1593436977997369 1.0802124199760572 1.0395539492762764 740.83444812228811 740.87453098769038 1.0393061054292476 
-34.530305495515883 -140.68661825838717 137.39850270538088 -34.530305495515897 -140.68661825838717 137.39850270538088 -49.138296383792827 3.6503615748175341e-05 -5.8803229576403870e-06 5.4953094943467958e-05 0.0000000000000000 2.1119613554830222e-06 -3.6837073524128468e-06 2.8737134594490538e-05 0.0022407293247060740 5.0501268507801126e-10 3.7788037551476845e-09 -6.3121601924376165e-09 0.0000000000000000 -34.196989160350306 -140.43319657724166 139.21506628885933 210.16870282748488 0.0000000000000000 0.0000000000000000 0.0000000000000000 0.0000000000000000 3.0898353101193270 3.1816360649161464 1.0918095643449357 1.0454219813629331 610.71433162473420 610.71064676179901 1.0448853056574565 
-31.229159788190330 -127.87933741654759 141.02226749791018 -31.229159788190344 -127.87933741654757 141.02226749791015 -93.999867867711643 3.4854545608538644e-05 -2.2354195351498009e-05 0.00014262075290919055 0.0000000000000000 6.2377196102803012e-08 2.3179741071022167e-08 2.6343527236960543e-05 0.0041182953438415265 2.5783256319804940e-09 3.3732962865799026e-10 -1.3199560707241728e-08 0.0000000000000000 -30.948229910445860 -127.64113600963313 142.72864290474456 229.21992526850030 0.0000000000000000 0.0000000000000000 0.0000000000000000 0.0000000000000000 3.0913638652538218 3.1845311002690830 1.0931682184284639 1.0450473923242907 707.95249607316759 707.87177828754659 1.0455078948490766 
-48.856860956871301 -130.93469472128768 145.13402165118643 -48.856860956871294 -130.93469472128766 145.13402165118634 -57.146958387607157 0.00010114675080095298 6.8603694213969940e-05 -5.4613156535799836e-07 0.0000000000000000 3.2817988788540993e-06 -1.6484352496380382e-05 3.7021817858424116e-05 0.0068644284729942199 2.0818747134002236e-09 -3.2386922918366448e-08 1.0225817700838367e-08 0.0000000000000000 -48.406431667502837 -130.90513559487593 146.85896726379221 225.63426853136377 0.0000000000000000 0.0000000000000000 0.0000000000000000 0.0000000000000000 3.1011997373348943 3.2048420145695782 1.1036548522998333 1.0483620302245671 643.66901120520606 643.70276304773517 1.0505431312430209 
-53.439253994532599 -84.867224227666952 74.123329607818548 -53.439253994532613 -84.867224227667009 74.123329607818519 -162.62986495343461 4.7736965854900221e-05 0.00027379998446650411 -0.00013384203543435837 0.0000000000000000 -2.8470148913425841e-06 9.7609477267233425e-07 5.8802882715768919e-05 0.019232402430707989 -2.5742627288754631e-08 1.9497636592990018e-08 4.8950572201570696e-08 0.0000000000000000 -53.009977022357148 -84.940192361847963 77.707205907375524 356.07450292316213 0.0000000000000000 0.0000000000000000 0.0000000000000000 0.0000000000000000 3.1000687559947790 3.2023250391406983 1.1022679798639958 1.0473011309555413 828.05881635594289 828.05841717668613 1.0498485856988617 
-40.650961496853498 -85.662342804023496 63.590794841982415 -40.650961496853498 -85.662342804023453 63.590794841982415 -315.81132771287577 -5.3412623942138688e-05 -6.7120504281521212e-05 -4.0363913427010299e-05 0.0000000000000000 1.7272661119662219e-06 -5.8476952706569237e-07 5.8956937797923291e-05 0.010349968071994810 -1.0746219426664902e-09 -2.8568180160640434e-09 -2.0826554037615422e-08 0.0000000000000000 -40.313282635619565 -85.652866469445740 67.489144002613742 334.72004880612383 0.0000000000000000 0.0000000000000000 0.0000000000000000 0.0000000000000000 3.0787093729068338 3.1588028671913930 1.0801001209382759 1.0405128871489673 1069.8666316239648 1069.8666453923072 1.0392832999786459 
-43.274007009986249 -94.088036926697768 79.886834203212146 -43.274007009986242 -94.088036926697754 79.886834203212160 -116.77866995239013 0.00025058312023094214 0.00011866148024850236 -0.00025233644687522137 0.0000000000000000 3.4802351858538928e-06 -1.2040818552550341e-05 5.4010824615876897e-05 0.019436778079284903 2.5316377779831376e-08 -5.6429613315015579e-08 -4.0882809842287918e-09 0.0000000000000000 -42.930125987095458 -94.071309017270835 83.274511392489799 283.94561953274422 0.0000000000000000 0.0000000000000000 0.0000000000000000 0.0000000000000000 3.1105147050495550 3.2233034841785528 1.1127997190218795 1.0498994994499133 773.26228330092749 773.26239903062617 1.0548798015301530 
-45.322109939459253 -99.060656313905255 64.171206816024224 -45.322109939459253 -99.060656313905255 64.171206816024267 -191.56404531352808 0.00037764688694187995 3.1672098809962231e-05 -0.00016303446938170383 0.0000000000000000 8.3436366399292083e-08 8.8494302441510781e-09 5.9350256138124280e-05 0.015252854029016018 1.0515455016096643e-08 -1.0708599581813340e-09 -3.6974568646502026e-08 0.0000000000000000 -44.946335306532468 -98.969717126470769 68.015559797458934 339.42980011114588 0.0000000000000000 0.0000000000000000 0.0000000000000000 0.0000000000000000 3.0869816717041245 3.1758083278008935 1.0888382496907096 1.0430921038790257 770.22237639299533 770.22245411861854 1.0434769757518121 
-35.966811011724772 -100.91697596739468 71.699605487082579 -35.966811011724765 -100.91697596739465 71.699605487082621 -234.20787878109121 2.3884745834609296e-05 4.7946615658890498e-05 -6.8504973965888009e-05 0.0000000000000000 2.8646251428204772e-06 -1.5856317028409099e-06 5.9845699407226423e-05 0.012359176962795992 2.9635280910528867e-09 2.8318206725063475e-09 3.0995424417556039e-08 0.0000000000000000 -35.672109309640206 -100.83293553867907 75.360366609178811 338.44965823895870 0.0000000000000000 0.0000000000000000 0.0000000000000000 0.0000000000000000 3.0788080166629417 3.1590793590964612 1.0802792926617892 1.0413936425499775 891.16797510556341 891.16794369785441 1.0393763796146560 
-49.378869453964732 -112.14990145849033 61.463461160899087 -49.378869453964732 -112.14990145849036 61.463461160899094 -176.15479802407097 0.00024323328914949483 -2.9282745974598010e-05 -9.2903984746938291e-05 -110.79589712946888 8.9498406269372652e-08 1.5358159022316187e-08 6.0513204650725072e-05 0.010925074493512269 -1.1493872080399400e-08 -7.5040977171369955e-09 1.6333508943315316e-08 0.018842550495364430 -48.975793059600008 -111.99207679200002 65.383142959360015 326.57209562220959 0.0000000000000000 0.0000000000000000 0.0000000000000000 0.0000000000000000 3.0811856367287551 3.1637992614094683 1.0826203218568273 1.0414480914105553 776.26322839174179 776.26328079314214 1.0404899263234402 
-25.481787244392368 -110.63193928573070 63.609681895372702 -25.481787244392390 -110.63193928573072 63.609681895372688 -323.28598958251098 -9.1154924594779867e-06 5.4633068691033435e-05 -0.00018881162284402334 0.0000000000000000 5.3788867471205037e-08 1.4603346809582977e-08 5.9591425227267778e-05 0.0087149274726054469 1.0829856261386007e-08 -1.5526236238986093e-08 -1.5238509405358328e-08 0.0000000000000000 -25.239536857883341 -110.48187134057846 67.469656361758609 349.35568362690350 0.0000000000000000 0.0000000000000000 0.0000000000000000 0.0000000000000000 3.0792743380278114 3.1600275236691329 1.0807611790241010 1.0401409410935967 1047.1160940988632 1047.1160770793429 1.0395953373463371 
-44.445729389294975 -111.42271031560216 72.849476369407142 -44.445729389294982 -111.42271031560220 72.849476369407114 -147.19855099685569 0.00023206884051962522 -0.00014878329346024321 -7.4732730115073138e-05 0.0000000000000000 8.2126788397696160e-08 1.4996566821690038e-08 5.5623029881601831e-05 0.010464620261997392 -1.0083073154177857e-08 2.6658313004969933e-08 -4.8971373265932990e-09 0.0000000000000000 -44.075852747763513 -111.26860156453857 76.452402029906395 268.59635586333832 0.0000000000000000 0.0000000000000000 0.0000000000000000 0.0000000000000000 3.0903181282780521 3.1825275326800422 1.0922200106922435 1.0458521057667420 775.45398161651815 775.45407289498564 1.0450798921826354 
-58.744939541266909 -106.36791587094987 102.68303665926582 -58.744939541266888 -106.36791587094982 102.68303665926580 -508.77452920496182 2.8154381704805935e-05 -7.0610384894829401e-06 -0.00010332692589464042 0.0000000000000000 -1.0890760017175023e-06 -7.9558486784409212e-06 4.0004152675867464e-05 0.026420123033929679 1.5088462956517953e-09 1.3008735982937001e-09 -9.4351568843519979e-09 0.0000000000000000 -58.254647241440821 -106.62760994408018 105.33920711112118 241.62621693813244 0.0000000000000000 0.0000000000000000 0.0000000000000000 0.0000000000000000 3.0118201082408409 3.0226802492429008 1.0108677121657648 1.0159941185962817 1129.1003800270626 1129.0939696548921 1.0055320456431585 
-64.951600183726498 -90.053853243637590 93.924269721126123 -64.951600183726455 -90.053853243637590 93.924269721126151 -288.46488894835943 -0.00026888559893393398 -0.00063535991555542330 0.00035491191232815163 0.0000000000000000 -6.1329057805289784e-06 -1.1699022440335063e-05 4.3584123175914911e-05 0.031168068342013008 -1.4629631688095747e-08 -6.7359550041288037e-08 7.6628718263141598e-09 0.0000000000000000 -64.370648572599308 -90.090304358695661 96.688480747766732 239.98138923263960 0.0000000000000000 0.0000000000000000 0.0000000000000000 0.0000000000000000 3.0788605869343417 3.1571840358486294 1.0783174450819111 1.0369587116910806 952.63520140250557 952.62938754969912 1.0383475115292393 
-76.392586224193309 -99.585755823416264 98.580879721544250 -76.392586224193295 -99.585755823416221 98.580879721544207 -404.29006397595589 0.00021141542491708189 -6.5049022080111143e-05 0.00030923833244211950 0.0000000000000000 -8.4115179199879887e-06 -7.5931486102957002e-06 3.9801163373194429e-05 0.013978943277834693 -7.6489630059920080e-09 1.2279526251120051e-09 -2.0439768584927918e-08 0.0000000000000000 -75.913673002404863 -99.702254402691466 101.32606574872912 288.13617662859207 0.0000000000000000 0.0000000000000000 0.0000000000000000 0.0000000000000000 3.0404741663330883 3.0798354496847229 1.0393623615327767 1.0267032390390016 1069.0858678410327 1069.1027670357535 1.0195642392141411 
-55.695342735436199 -93.440592637179250 100.76332638476558 -55.695342735436206 -93.440592637179208 100.76332638476559 -481.96662217872978 3.3882596628510111e-05 -0.00017626359562636720 0.00028153801070012504 0.0000000000000000 -4.7644440790528864e-07 -1.0745270377618623e-05 4.1799414012492465e-05 0.027184945981038506 1.4092300120178012e-08 -1.7527822271006573e-08 3.7545905086268410e-08 0.0000000000000000 -55.164710769962618 -93.586508083202432 103.32606452766413 222.68531933077850 0.0000000000000000 0.0000000000000000 0.0000000000000000 0.0000000000000000 3.0345251730021241 3.0678905242949090 1.0333644200783567 1.0208257770649207 1138.8633305983794 1138.8675556976368 1.0166436408282269 
-46.144084295964056 -176.38185245374635 154.31251096513816 -46.144084295964056 -176.38185245374640 154.31251096513822 -34.072383963646111 -2.9996599289054805e-05 -4.4581035649877492e-05 1.4377607672258514e-05 0.0000000000000000 8.4664643823506580e-08 4.7298012895158343e-08 2.0635506285060504e-05 0.0011524097563684478 1.0902096818042837e-09 2.9640337527834575e-09 -1.5320531784516394e-10 0.0000000000000000 -45.762777822239421 -175.89580528354742 155.64915507299250 248.91339099022119 0.0000000000000000 0.0000000000000000 0.0000000000000000 0.0000000000000000 3.0899607092925216 3.1818738639702056 1.0919251911541032 1.0444382414245565 550.45016768678590 550.24761977534388 1.0449466890860324 
-51.855237663558569 -186.09851028933210 167.17489825775772 -51.855237663558569 -186.09851028933210 167.17489825775775 -34.222403135404235 8.5725581330866739e-06 1.1689512838791881e-05 1.3394748750973735e-05 -41.587195588789861 9.3198852052500669e-08 5.2129678518308971e-08 1.5111245136978368e-05 0.00093588460596501308 -1.8825969047733143e-09 3.2745125318608773e-10 2.6105475248115612e-10 0.0012624116031645098 -51.435495451599998 -185.56281141599996 168.15371392000000 294.81703600272857 0.0000000000000000 0.0000000000000000 0.0000000000000000 0.0000000000000000 3.0812050704775289 3.1639260299310927 1.0827291776797290 1.0413524209923708 528.27707790881936 527.65127515794222 1.0405453352002625 
-43.034192824659762 -171.62835309777387 165.22740701568097 -43.034192824659762 -171.62835309777387 165.22740701568094 -25.868094285639014 3.4476331718538143e-05 -2.4690771793056249e-05 1.1296731513016173e-05 0.0000000000000000 1.8048861882823105e-07 -1.8174909333190328e-06 1.6547590564198516e-05 0.0015093444026284910 -6.7083522692633910e-10 -1.8145256925124236e-09 -1.4720928202012361e-10 0.0000000000000000 -42.672974891599750 -171.18173466392949 166.26923354793541 271.88244999766295 0.0000000000000000 0.0000000000000000 0.0000000000000000 0.0000000000000000 3.0856903295943905 3.1731147797758767 1.0874345681570174 1.0428774162201844 518.25689408686219 518.09551326588723 1.0428012651912164 
-59.856323990224887 -178.51432742254102 156.47410702425486 -59.856323990224851 -178.51432742254107 156.47410702425486 -42.206714399762433 4.0207667362662658e-06 1.6751172813800175e-05 1.3719376475525207e-06 0.0000000000000000 1.0515491946638811e-07 4.8358382243041120e-08 1.9707123335876986e-05 0.0013933882389861362 2.7561117867817325e-09 -3.4433522088379649e-09 -3.6333428699254987e-09 0.0000000000000000 -59.382734921100123 -178.01738339707751 157.75061606229067 243.94852352315442 0.0000000000000000 0.0000000000000000 0.0000000000000000 0.0000000000000000 3.0857464164940609 3.1732352461858273 1.0874990158013953 1.0426326290852399 531.37210753703994 532.64879769213269 1.0428311243999113 
-31.023458398831412 -102.78619561331745 92.256486436181191 -31.023458398831405 -102.78619561331745 92.256486436181163 -86.358500492495196 -3.2167188939804569e-05 -3.4736763254911043e-05 -0.00048898268383420638 0.0000000000000000 5.4896593957683592e-06 1.3230380136028871e-06 4.4953669049835060e-05 0.013734698608809331 1.6185637812907307e-08 1.9576229815641433e-08 -6.1358969434904640e-08 0.0000000000000000 -30.660097366607719 -102.72526557899965 95.328291536857705 204.58703120518373 0.0000000000000000 0.0000000000000000 0.0000000000000000 0.0000000000000000 3.1089832636967096 3.2200196451890744 1.1110273590766899 1.0483654245308105 635.48371267648338 635.48696891001737 1.0540686416610188 
-19.002869185113159 -111.05819723623809 90.234765447107662 -19.002869185113166 -111.05819723623804 90.234765447107705 -145.97390748816272 2.3183183191456804e-05 2.9543449744185803e-05 -2.4461649715328808e-05 0.0000000000000000 4.4107386937275457e-08 1.4815299709258767e-08 4.8156229587981159e-05 0.0072363330613361325 9.0220033130108304e-09 3.7226073240018017e-09 -3.6781379683501859e-09 0.0000000000000000 -18.804221549666405 -110.90595113131390 93.354036648627854 267.24800799435923 0.0000000000000000 0.0000000000000000 0.0000000000000000 0.0000000000000000 3.0853006588744174 3.1723796384924485 1.0870886180181893 1.0433407888893278 725.02000757502526 725.02269469870339 1.0426381863188749 
-34.158937412985374 -104.83702455957471 81.624129377894931 -34.158937412985352 -104.83702455957471 81.624129377894903 -185.81831244988302 -5.4879718848512644e-05 -0.00022390630027500913 4.4125393243097943e-06 0.0000000000000000 5.0843670225101027e-06 7.8754918510457372e-07 5.2829409988043215e-05 0.0071063227138213943 3.4343120873875112e-09 1.2807753215880857e-08 -3.5089997205101172e-10 0.0000000000000000 -33.815892125380543 -104.71065599625929 85.007910193808286 270.69679205096202 0.0000000000000000 0.0000000000000000 0.0000000000000000 0.0000000000000000 3.0863082128050219 3.1741269793721618 1.0878260508816597 1.0435658860234989 855.36844075568638 855.36805809758403 1.0429794411087412 
-19.120623839872835 -100.47786219197471 92.337284356896191 -19.120623839872842 -100.47786219197472 92.337284356896163 -119.36197184167685 0.00012945553091244308 -9.7378104724890342e-05 0.00017691713596503430 0.0000000000000000 4.4283347599982648e-08 9.5541545230837227e-09 4.7253219638498933e-05 0.0032001124416987901 -1.9964174942547319e-08 1.3088547643473258e-08 9.5350066935769189e-09 0.0000000000000000 -18.921183722278450 -100.37968114352928 95.398064000337470 185.31956687594098 0.0000000000000000 0.0000000000000000 0.0000000000000000 0.0000000000000000 3.0797331228846616 3.1609901694172198 1.0812664895656101 1.0428113061260076 701.54220455139318 701.54386183875602 1.0398639002082484 
-31.403979774315282 -118.13748729668900 172.37142053672562 -31.403979774315296 -118.13748729668897 172.37142053672557 -86.918815710714370 4.0870101647763272e-05 0.00013065764847532485 -8.5119519431121687e-05 0.0000000000000000 6.6709890327835766e-07 -2.7329034536530643e-07 1.2956128657299608e-05 0.0047712450699297672 1.7230949778569921e-09 1.6512640984515855e-09 -5.6326656979868881e-09 0.0000000000000000 -31.124431206993112 -117.97934695114738 173.21200361760444 258.17126679857051 0.0000000000000000 0.0000000000000000 0.0000000000000000 0.0000000000000000 3.0874578293246184 3.1765465972778912 1.0890971014647448 1.0439989325389663 663.26357487374128 663.27301609703545 1.0435954406821712 
-30.932722739954976 -133.36697559741691 163.72174422351148 -30.932722739954990 -133.36697559741694 163.72174422351148 -60.563803458212732 1.2289372041424502e-05 7.4108365564311098e-05 -2.3699144582621233e-05 0.0000000000000000 1.2763919223148596e-06 -1.6919224721396904e-06 1.7194752389980551e-05 0.0022499688402677302 -1.6347526086754071e-10 -2.9023220930518584e-09 4.4295159898276780e-09 0.0000000000000000 -30.642131568542830 -133.13454878399213 164.80820313575899 262.24283076768535 0.0000000000000000 0.0000000000000000 0.0000000000000000 0.0000000000000000 3.0922564164176594 3.1864373828738759 1.0941919938961464 1.0453068491657311 638.39972976307070 638.40090773830048 1.0460344743169905 
-43.041052385848324 -120.20044640324716 162.51951692492293 -43.041052385848310 -120.20044640324707 162.51951692492287 -42.803632603847170 0.00015028689411649028 2.3064733853124256e-05 -2.8210059911933131e-05 0.0000000000000000 1.3935790513551025e-06 -4.7603523823122414e-06 2.2659677616819617e-05 0.0026911090391162529 -3.9716450975285904e-09 -6.5048587330231724e-09 7.4815772612464623e-09 0.0000000000000000 -42.676694985445003 -120.10595080876966 163.70375490782192 268.28772502602959 0.0000000000000000 0.0000000000000000 0.0000000000000000 0.0000000000000000 3.0997620411814513 3.2017318407930868 1.1019825708365394 1.0494310578638555 655.89968124597010 655.92418536897048 1.0497448875189859 
-23.979463158993404 -114.40330692905272 160.65250446177146 -23.979463158993411 -114.40330692905266 160.65250446177140 -122.23702033975044 -2.5818142003401691e-07 -3.5108119113287555e-05 5.4854680971087740e-05 0.0000000000000000 5.1543937368281334e-08 1.6478683917409143e-08 1.7912545231979493e-05 0.0029617947715319640 1.6478264899345061e-09 2.3743978915531035e-09 1.6938369739778968e-09 0.0000000000000000 -23.747323328369049 -114.23396745764113 161.81277151251504 321.01516800445251 0.0000000000000000 0.0000000000000000 0.0000000000000000 0.0000000000000000 3.0840771718635129 3.1695635508054356 1.0854913157079620 1.0427016725880001 729.55285906558618 729.46799165838831 1.0418713429830182 
-6.5784801908119999 -105.10940077516793 106.66943677711902 -6.5784801908120007 -105.10940077516790 106.66943677711902 -34.025411758207049 1.3180268990904618e-05 2.0276347850577856e-06 -0.00012146856798228905 -4.9621267345739053 2.5541556536445853e-08 1.1857217374622310e-08 4.1097709678972194e-05 0.00095223109782825439 -2.2940378776748091e-09 5.0164235424644998e-09 -6.6994746138272422e-09 -0.00087663356259181811 -6.4634479885999987 -104.98755276399999 109.33149947120000 327.67017865987640 0.0000000000000000 0.0000000000000000 0.0000000000000000 0.0000000000000000 3.0857573856113083 3.1733855888515170 1.0876421218808296 1.0431740219070518 515.37058601601916 515.49372433932683 1.0428935225822298 
-11.958075004181618 -97.198303182728495 98.549732466834570 -11.958075004181620 -97.198303182728509 98.549732466834584 -99.216095195838989 0.00011727577510412741 -0.00023219668264097391 -0.00024249435455818137 -84.333159631252215 3.3580312988612520e-08 7.9233608007989176e-09 4.4585037977107334e-05 0.00054308520138320157 -6.3479033918240598e-09 1.1099417747030439e-08 9.1214714345216210e-09 -0.0038881300885985856 -11.806838433999999 -97.116880539599975 101.43768333439998 212.90238721710071 0.0000000000000000 0.0000000000000000 0.0000000000000000 0.0000000000000000 3.0734423659930568 3.1479577606260603 1.0745215596575519 1.0409042452268749 595.14368603877040 595.16470360335359 1.0366197270189439 
-16.028233143010670 -110.50954530886085 100.25697075975395 -16.028233143010667 -110.50954530886084 100.25697075975398 -111.59679059216010 -8.2644286144232661e-05 2.2953515195136205e-05 -0.00029581343164459249 0.0000000000000000 3.9662372899873510e-08 1.4542474946477313e-08 4.3851796941218879e-05 0.0041506850772946398 5.7044280736698445e-09 7.5610435544019761e-09 1.3795474329689844e-08 0.0000000000000000 -15.849604639409371 -110.36010279166017 103.09742667861765 236.22178992679409 0.0000000000000000 0.0000000000000000 0.0000000000000000 0.0000000000000000 3.0847440215153754 3.1712263040431377 1.0864929230200344 1.0430101314402807 738.36548638461306 738.33568199345018 1.0423469272596373 
-23.981733766071667 -99.628051009958398 99.418052519591740 -23.981733766071667 -99.628051009958384 99.418052519591740 -70.300456690532158 4.2982071171141710e-05 -6.7954273581721588e-05 -4.5048813476288934e-05 0.0000000000000000 5.1547330598422647e-08 9.1315767725141939e-09 4.4212103577301327e-05 0.0069406728067121408 4.1487166652013332e-08 1.7201152618923327e-08 -7.6554887846937242e-09 0.0000000000000000 -23.749578654390465 -99.534212460059550 102.28184693721489 211.57004919854941 0.0000000000000000 0.0000000000000000 0.0000000000000000 0.0000000000000000 3.1017127120940704 3.2058132894893467 1.1041051326637152 1.0466572743218723 657.20432926037017 657.21137243915280 1.0507467234099617 
-54.580384825575699 -108.00331545223698 111.31852035421568 -54.580384825575713 -108.00331545223703 111.31852035421569 -354.01275927750436 0.00027215430753472261 0.00050289334213921520 -0.00054992306466357898 0.0000000000000000 3.9600120487615435e-06 -7.4481833546977591e-06 4.1771802410161560e-05 0.046715834573862455 6.1245891369473501e-08 6.5419749448281443e-08 -5.6539542152845357e-08 0.0000000000000000 -54.087034329299712 -108.37170302860723 113.84396407125838 191.01171882188567 0.0000000000000000 0.0000000000000000 0.0000000000000000 0.0000000000000000 3.0564531878403773 3.1130386918388742 1.0565831114755870 1.0254528243334808 810.94626829843992 810.94445739957928 1.0278227193554155 
-42.263262646583229 -107.53596185309263 108.45162465979423 -42.263262646583229 -107.53596185309257 108.45162465979421 -405.81733496592244 -0.00023769651825094535 6.2805629225250211e-05 6.7573394930095556e-05 0.0000000000000000 4.6898881860609871e-06 -1.2155903663742204e-05 4.0845197988319383e-05 0.021542645297069618 -1.1967417186835339e-09 -1.0791639954080098e-08 1.0424892209748250e-08 0.0000000000000000 -41.690910404717421 -107.74885629568415 110.97670241767709 270.34727434602189 0.0000000000000000 0.0000000000000000 0.0000000000000000 0.0000000000000000 3.0254834551828842 3.0499063626841534 1.0244128237617014 1.0235773038076885 1132.4898773315008 1132.5166681376506 1.0122790436887490 