# For a description of the Tecplot format see the Tecplot User's guide.
#
Variables=x,y,z,s_u,s_v,s_w,s_p,mono_f_vel_u,mono_f_vel_v,mono_f_vel_w,const,u_nu,v_nu,w_nu,p_nu,x_nu,y_nu,z_nu,const,u_ref,v_ref,w_ref,vol_ref,x_ref,y_ref,z_ref,const,I1,I2,I3,J,p1,p2,p3
Zone f=fepoint, n=1339, e=6475, et=brick, c=black
-58.7136 -70.4680 176.283 -58.713647416735711 -70.467958651771482 176.28319580201915 107.76251318769715 -4.0578379510159723e-07 2.6003774714725383e-06 -4.5723605339126004e-06 107.40232930211575 -1.6015358310361716e-11 8.2671369749931500e-13 -1.7657325601660998e-09 -0.00088797418648012261 -1.0843566476674569e-11 3.0382732611091946e-11 -5.4036004012042815e-11 -0.00090050310889632531 -58.668039002000000 -70.473359259200009 176.35421013599998 215.13583165143561 0.0000000000000000 0.0000000000000000 0.0000000000000000 0.0000000000000000 3.0060530342996943 3.0121194389837003 1.0060664213444641 1.0038940378087520 164.86807553632156 164.93092261966879 1.0030314533675919 
-65.012881671802617 -76.412260301119787 183.97444138581807 -65.012881671802603 -76.412260301119801 183.97444138581801 119.39520265350799 -2.2095636706119946e-06 1.1179617104475644e-05 -1.3138234831053769e-05 118.64924057789358 -1.7463789962757211e-11 3.7552599918555529e-13 -1.2449314912288401e-09 -0.00083949370782246879 -2.1355196151915245e-11 3.4916620937773266e-11 -4.1135152887370079e-11 -0.00085143904706616602 -64.963123215600007 -76.414687385200040 184.02450960799996 253.42820447565578 0.0000000000000000 0.0000000000000000 0.0000000000000000 0.0000000000000000 3.0041243532152633 3.0082505043512531 1.0041261610097540 1.0038940378087520 194.01433416646836 193.73416765873469 1.0020677203521804 
-69.716449854825584 -71.579301557830675 177.16806778833677 -69.716449854825569 -71.579301557830689 177.16806778833680 109.01703682342954 4.4530223309859970e-06 3.4006032299310004e-06 -3.9362292334265761e-06 112.19134997705898 -1.8554743679011221e-11 7.3990813476143568e-13 -1.7058169321515493e-09 -0.00089950940079581629 -1.6683847951416522e-11 2.6286461491470818e-11 -5.1018139091137759e-11 -0.00090748474937064362 -69.663592608799988 -71.584146237200002 177.23667228800005 218.29881668600640 0.0000000000000000 0.0000000000000000 0.0000000000000000 0.0000000000000000 3.0034255053488113 3.0068582923123102 1.0034328041904110 1.0038940378087513 177.01723382498520 177.02219891382427 1.0017232983235527 
-57.209622820235325 -87.730008727031603 171.58703501968796 -57.209622820235367 -87.730008727031560 171.58703501968802 97.310408625332002 4.6273568684689350e-06 -8.0314272935297282e-06 -2.3485591862384010e-05 0.0000000000000000 -1.5669045054511610e-11 -4.9500681331693386e-13 -2.0837346292879033e-09 -0.00087394054431356191 2.6141126703362215e-11 7.1651578407996613e-11 -3.9489498403202629e-11 0.0000000000000000 -57.165005282198301 -87.726774323660578 171.67083873969227 259.76550921814646 0.0000000000000000 0.0000000000000000 0.0000000000000000 0.0000000000000000 3.0155937149888854 3.0312004757550706 1.0156067117093766 1.0067276100494444 113.95968016867562 114.04036867612101 1.0077695584513007 
-88.963882510312175 -83.378980262871721 116.88012934148658 -88.963882510312189 -83.378980262871679 116.88012934148661 84.076282233736336 -8.9512343472953720e-07 -2.4670781763418035e-05 5.4113973072976728e-06 0.0000000000000000 -2.3004906139767467e-11 -1.6367462940536370e-13 -5.7882306725431939e-09 -0.0012680340410305504 -1.8606724144718189e-11 -5.7072245180363424e-11 -9.1886843938222241e-11 0.0000000000000000 -88.898344731952406 -83.377922378373768 117.11292023788836 283.91631954144174 0.0000000000000000 0.0000000000000000 0.0000000000000000 0.0000000000000000 3.0144908260973278 3.0290053872525622 1.0145145586396607 1.0063106153627015 94.607146838357949 94.607548864340572 1.0072299828982632 
-97.666964303012080 -66.894512477184875 107.96307606802405 -97.666964303012051 -66.894512477184875 107.96307606802405 110.48988268857028 2.7479551042287946e-06 -1.9143129342774054e-07 1.8270482377577033e-05 112.29546812202445 -2.5022098108784526e-11 1.1066841887341639e-12 -6.3920518877935706e-09 -0.0011232401055796368 1.9757152583135720e-12 -2.9942208465681001e-11 2.1258102640583866e-10 -0.0011608576802185258 -97.595692787999965 -66.901700632800015 108.22015140479995 322.25788568967050 0.0000000000000000 0.0000000000000000 0.0000000000000000 0.0000000000000000 3.0047353161069235 3.0094747638794956 1.0047394536527481 1.0038940378087526 175.41868823513775 175.41854440308933 1.0023721190996679 
-79.721981902189796 -67.524577192355878 108.35947902499608 -79.721981902189796 -67.524577192355920 108.35947902499612 104.91253704882008 5.0693157732555552e-06 -1.6559306987044306e-06 1.1576427235051387e-05 0.0000000000000000 -2.0880119681876416e-11 1.0587433707520688e-12 -6.3652075832365532e-09 -0.0012024801896026607 9.1214397746401178e-11 7.8324235757019592e-12 1.4609747591887125e-10 0.0000000000000000 -79.662532843379708 -67.531450170133141 108.61547480962874 295.38956150422752 0.0000000000000000 0.0000000000000000 0.0000000000000000 0.0000000000000000 3.0117599576480516 3.0235696749649175 1.0118097638626520 1.0057082888146165 139.73918504575116 139.73920349261468 1.0058833387590449 
-94.547003914639262 -81.839791483418963 108.37034201579245 -94.547003914639248 -81.839791483418992 108.37034201579247 104.80550336399081 1.3225547411148921e-05 -2.7704452926014672e-06 2.6525998491957631e-05 0.0000000000000000 -2.4308606343115269e-11 -4.7260806379512126e-14 -6.3644782777316777e-09 -0.0010816032714052249 3.0153554358663249e-11 2.5798304030374188e-10 4.5030479574453766e-10 0.0000000000000000 -94.477787882002133 -81.839503548705352 108.62630821647583 293.80807890400462 0.0000000000000000 0.0000000000000000 0.0000000000000000 0.0000000000000000 3.0119643076162301 3.0239590425188210 1.0119947429094285 1.0057852190398668 136.02368014979359 136.02371062144269 1.0059747840162390 
-47.263823959215088 -126.00744813147759 138.48045379745676 -47.263823959215117 -126.00744813147764 138.48045379745682 13.312465603830725 -3.0245448910299196e-06 -4.0797909169275409e-06 -5.6643819711110429e-06 0.0000000000000000 -2.3167633645316069e-07 6.6997044608350113e-07 -2.4209311137970119e-06 -0.0014535119416977371 -1.7095628944006533e-11 1.5685457350912528e-11 -3.1782965003371368e-10 0.0000000000000000 -47.292355390977058 -125.96433165720771 138.67232254046354 244.31333887135355 0.0000000000000000 0.0000000000000000 0.0000000000000000 0.0000000000000000 2.9969823472939354 2.9939230870784561 0.99694087907895867 0.99831291762910446 39.020826442077784 39.024121750261450 0.99846899067404227 
-34.199012267285184 -140.45307967160556 139.04848280172524 -34.199012267285184 -140.45307967160548 139.04848280172521 13.237284016712623 -8.2246723297588434e-06 -1.8134450156760081e-06 -8.8484785911149564e-07 0.0000000000000000 -1.1309962464523100e-07 4.1838637078918413e-07 -6.8108877477880917e-07 -0.0011898333126705264 2.1544075091926599e-13 2.3035759494900288e-10 -5.4469612679683016e-10 0.0000000000000000 -34.196989160350306 -140.43319657724166 139.21506628885933 210.16870282748488 0.0000000000000000 0.0000000000000000 0.0000000000000000 0.0000000000000000 2.9993320403679089 2.9986169675449954 0.99928498727344450 0.99960267536690861 32.996169135449016 32.996377269391125 0.99964345962716894 
-30.975564009337351 -127.66434680277575 142.56580361750093 -30.975564009337376 -127.66434680277587 142.56580361750093 22.083673950716371 -7.4908598658267306e-06 -4.9539459285610364e-06 -4.5369440841225063e-06 0.0000000000000000 -9.5984635170576205e-12 -3.5708727641470270e-12 -4.0489189778725168e-09 -0.0012044209344212904 -7.7554584958888345e-11 7.9314960514549874e-11 -4.0958894979354446e-10 0.0000000000000000 -30.948229910445860 -127.64113600963313 142.72864290474456 229.21992526850030 0.0000000000000000 0.0000000000000000 0.0000000000000000 0.0000000000000000 3.0026921365069357 3.0053515102085027 1.0026593835665663 1.0009525890557349 33.515450347623222 33.512889715886097 1.0013273251515185 
-48.376994377430137 -130.95268643126514 146.69797949291032 -48.376994377430123 -130.95268643126516 146.69797949291026 8.6076983067429786 -8.4298734750558110e-06 -1.7890550406347896e-05 1.4984617748585581e-05 0.0000000000000000 -2.9984882793607835e-07 7.1272290357783893e-07 -2.1450175747527300e-06 -0.0011605601698287764 -8.0092621009062848e-11 9.5059206318599857e-11 -2.8291722106319418e-10 0.0000000000000000 -48.406431667502837 -130.90513559487593 146.85896726379221 225.63426853136377 0.0000000000000000 0.0000000000000000 0.0000000000000000 0.0000000000000000 2.9941664043746807 2.9883017791040065 0.99413551865456651 0.99753404055475281 36.355175093095596 36.352539166225114 0.99706400867287903 
-53.055090017763689 -85.021581320427231 77.516123363601835 -53.055090017763661 -85.021581320427231 77.516123363601807 97.789357269706699 1.2862958015176508e-05 -6.8814843470173584e-05 0.00015627082362962722 0.0000000000000000 1.5092636227035746e-07 -2.8750164456966426e-07 4.2075748826267827e-06 0.00055127070905893220 -4.3814650697296408e-10 2.5518665837260043e-09 5.7743029514212104e-09 0.0000000000000000 -53.009977022357148 -84.940192361847963 77.707205907375524 356.07450292316213 0.0000000000000000 0.0000000000000000 0.0000000000000000 0.0000000000000000 3.0071856338662482 3.0142024933889626 1.0070171104032681 1.0038573121320549 106.78702717081359 106.78662118099007 1.0034754666489976 
-40.349072267920825 -85.681094066701434 67.188965002245695 -40.349072267920825 -85.681094066701448 67.188965002245652 178.47528561705982 1.5841121891402789e-06 -2.1307290915008521e-05 6.9742246595290856e-05 0.0000000000000000 8.5660059445698329e-07 -2.2263297953933948e-07 1.2146792214834287e-06 0.00060002345729524918 1.3595366173431733e-09 3.6351319726974414e-10 -1.2818852105318103e-09 0.0000000000000000 -40.313282635619565 -85.652866469445740 67.489144002613742 334.72004880612383 0.0000000000000000 0.0000000000000000 0.0000000000000000 0.0000000000000000 3.0142579798848081 3.0284396732086472 1.0141816659981631 1.0059058199922803 261.80940627192450 261.80943311793732 1.0070593460528157 
-43.006660005985580 -94.135430608392667 83.043254014592591 -43.006660005985594 -94.135430608392667 83.043254014592563 72.562183846429178 -7.6585453575846423e-05 -5.3823344461193460e-06 3.0307284663855154e-05 0.0000000000000000 2.1610216655006490e-07 -2.1336436105865121e-06 2.7557288512129414e-06 -0.00047202138383046322 1.2319805694683602e-09 -2.1782285387579068e-09 2.6731226546565318e-09 0.0000000000000000 -42.930125987095458 -94.071309017270835 83.274511392489799 283.94561953274422 0.0000000000000000 0.0000000000000000 0.0000000000000000 0.0000000000000000 3.0049139725579432 3.0097290245310848 1.0048152054522665 1.0036950324688141 87.440750822608592 87.441217763060038 1.0023986131954983 
-44.982897672414680 -98.978578411949499 67.648693457905026 -44.982897672414687 -98.978578411949471 67.648693457904997 128.09413334366380 -4.5580370941080451e-05 -5.9637681049411485e-05 0.00011264541341501941 0.0000000000000000 -1.2837858380521094e-11 -1.3661502484829670e-12 -9.1219495290673080e-09 0.00052170397520122055 2.6135335662381060e-09 -3.6678230537434307e-09 -1.3840004537229269e-11 0.0000000000000000 -44.946335306532468 -98.969717126470769 68.015559797458934 339.42980011114588 0.0000000000000000 0.0000000000000000 0.0000000000000000 0.0000000000000000 3.0074607212718822 3.0148602215864027 1.0073995306358121 1.0043057973772058 180.25674843307235 180.25674092764447 1.0036867823382112 
-35.745612187308474 -100.86292097039873 75.063113871477924 -35.745612187308467 -100.86292097039873 75.063113871477967 118.55161585702913 -4.4079710429794917e-05 -1.6124794340462896e-05 3.9837713670569647e-05 0.0000000000000000 -1.1090555806280197e-07 -1.1811355437873386e-06 1.0733766621669834e-06 -0.00077407400898750782 -9.1265670007001987e-11 -1.3860693238822554e-09 7.9093759003063740e-10 0.0000000000000000 -35.672109309640206 -100.83293553867907 75.360366609178811 338.44965823895870 0.0000000000000000 0.0000000000000000 0.0000000000000000 0.0000000000000000 3.0168968837218655 3.0337567431882722 1.0168598534324180 1.0061391318472774 147.29243624918138 147.29226222346594 1.0083931392870804 
-49.015011850114050 -112.00745552436837 65.009087995999010 -49.015011850114050 -112.00745552436841 65.009087995999025 98.752513158080305 -8.7185353786517578e-05 -1.8566794277787183e-05 6.2062110846429356e-05 57.822722595384100 -1.3770077959829317e-11 -2.3658991432640168e-12 -9.3006908841175573e-09 -0.0011789927259837840 -1.0480001928881668e-09 -1.7726300048048139e-09 2.3258520301446544e-09 -0.0021945890205537699 -48.975793059600008 -111.99207679200002 65.383142959360015 326.57209562220959 0.0000000000000000 0.0000000000000000 0.0000000000000000 0.0000000000000000 3.0081060294943502 3.0162346287183870 1.0081285465876755 1.0039688655510914 121.28085424213073 121.28088535064110 1.0040482327404165 
-25.263107494351459 -110.49649424342945 67.101299264974600 -25.263107494351484 -110.49649424342944 67.101299264974585 159.63263495362418 -1.4421566135458029e-05 -8.9768773368684632e-06 4.5319140539818055e-05 0.0000000000000000 -8.2767534145822275e-12 -2.2486665307575038e-12 -9.1590230955063118e-09 -0.00099350111074869639 -4.1082728056029234e-11 -3.1765274991744219e-10 5.8793420963588408e-10 0.0000000000000000 -25.239536857883341 -110.48187134057846 67.469656361758609 349.35568362690350 0.0000000000000000 0.0000000000000000 0.0000000000000000 0.0000000000000000 3.0113981276865327 3.0228096136826959 1.0114114805298544 1.0052265103868823 242.32890516501561 242.32895725675183 1.0056874379113379 
-44.111841247023364 -111.28361821111817 76.108575082918151 -44.111841247023357 -111.28361821111820 76.108575082918151 75.881034602999236 -4.3415267029186086e-05 3.9702620701123705e-05 7.5519671816575332e-06 0.0000000000000000 -1.2637206385501809e-11 -2.3007221128246158e-12 -8.5490898804607696e-09 -0.0017843930849713216 -1.2283729295966212e-09 1.6915111373806122e-09 -8.8042977631688514e-10 0.0000000000000000 -44.075852747763513 -111.26860156453857 76.452402029906395 268.59635586333832 0.0000000000000000 0.0000000000000000 0.0000000000000000 0.0000000000000000 3.0035137675990033 3.0069287138331524 1.0034149345865668 1.0038059934384032 114.37619542430879 114.37611839544239 1.0017094545817182 
-58.243632281360426 -106.73441064745225 105.10170703137312 -58.243632281360469 -106.73441064745218 105.10170703137315 8.5498968111515286 -1.7348181611449655e-05 -2.6530021575391598e-05 -1.0318912298830281e-05 0.0000000000000000 4.7991466714287646e-07 -1.6602094632021685e-06 2.2187246449872636e-07 -0.0024278327452161319 2.5149659509983040e-10 1.0114248715213424e-10 1.3988170133237843e-11 0.0000000000000000 -58.254647241440821 -106.62760994408018 105.33920711112118 241.62621693813244 0.0000000000000000 0.0000000000000000 0.0000000000000000 0.0000000000000000 2.9924860316083648 2.9849657738843978 0.99247983839977394 0.99701424796028226 36.855419786262225 36.855303284362471 0.99623129214412764 
-64.335774485435010 -90.224754572624136 96.487198239732223 -64.335774485434982 -90.224754572624093 96.487198239732194 39.977896171179992 2.2642991685782403e-05 -3.2194485301110847e-06 -3.3336533095440398e-05 0.0000000000000000 1.4547639329293907e-06 -1.8285949206156726e-06 2.1280335634484524e-06 -0.0017167857468139889 2.8376896181524870e-09 -6.4234178502774795e-10 1.7499924778902990e-09 0.0000000000000000 -64.370648572599308 -90.090304358695661 96.688480747766732 239.98138923263960 0.0000000000000000 0.0000000000000000 0.0000000000000000 0.0000000000000000 2.9983701988430274 2.9966257121272908 0.99825584911901677 1.0014206073386682 66.174299089415342 66.172501527814276 0.99911551631233175 
-75.863391344760359 -99.807257650037670 101.11965691687264 -75.863391344760359 -99.807257650037641 101.11965691687269 31.683106620969305 3.1980938405154373e-05 -4.1149280523462981e-05 1.8004245722277407e-05 0.0000000000000000 1.3826358150373983e-06 -1.4166310609429054e-06 1.2207329707783091e-06 -0.0017261862159855096 4.6584835546361965e-10 -4.6476013077513515e-10 5.5233720005574547e-10 0.0000000000000000 -75.913673002404863 -99.702254402691466 101.32606574872912 288.13617662859207 0.0000000000000000 0.0000000000000000 0.0000000000000000 0.0000000000000000 2.9957317213589603 2.9914543227182828 0.99572259812490338 0.99968583496475760 55.477149903591673 55.476371193707571 0.99786575885244144 
-55.152050080889488 -93.705456994329978 103.10823684989707 -55.152050080889474 -93.705456994329950 103.10823684989705 35.896437621623470 -5.3795826898581411e-07 -1.7749189762681801e-05 -1.9576607669692780e-05 0.0000000000000000 5.1564142455928422e-07 -1.5392323467281002e-06 7.5993631551887908e-07 -0.0021996605432501957 -4.5549854764995856e-10 5.5968404944430919e-10 -1.2373332772992152e-09 0.0000000000000000 -55.164710769962618 -93.586508083202432 103.32606452766413 222.68531933077850 0.0000000000000000 0.0000000000000000 0.0000000000000000 0.0000000000000000 2.9985818694161086 2.9971639809801607 0.99858201015766912 0.99988153616224829 70.058805308608029 70.067676697729652 0.99929119816022882 
-45.799878428783813 -175.94316663405812 155.52159921807942 -45.799878428783813 -175.94316663405797 155.52159921807933 5.2184403802344494 2.1354862178230993e-05 1.2265568270437673e-05 -4.1240954191384866e-05 0.0000000000000000 -1.3026280575034743e-11 -7.2703162934395493e-12 -3.1716050896690713e-09 -0.00080779965756362627 -2.2175195094186562e-10 -9.4795508178197177e-12 1.9759843688547981e-10 0.0000000000000000 -45.762777822239421 -175.89580528354742 155.64915507299250 248.91339099022119 0.0000000000000000 0.0000000000000000 0.0000000000000000 0.0000000000000000 2.9977537117498452 2.9955032857797810 0.99774960094397691 1.0002731166375769 15.531495552491590 15.535835633516287 0.99886856250042566 
-51.476335803728908 -185.61501092185810 168.06030560894246 -51.476335803728908 -185.61501092185810 168.06030560894243 14.331590812829353 -2.4479012645988284e-06 6.3472266602429415e-06 5.3783819215297166e-06 19.267341359024702 -1.4339275426766830e-11 -8.0289178083781110e-12 -2.3225456002862188e-09 -0.00074514599727600311 7.3798849169650977e-11 -5.9036214980955035e-11 -6.2227993592557319e-11 -0.00074980282761940599 -51.435495451599998 -185.56281141599996 168.15371392000000 294.81703600272857 0.0000000000000000 0.0000000000000000 0.0000000000000000 0.0000000000000000 3.0084826021888529 3.0169775281714588 1.0084949266049728 1.0036521235594711 2.8899484234548969 2.8669233325153098 1.0042407850925239 
-42.703891969189598 -171.23803268089776 166.17011617091575 -42.703891969189598 -171.23803268089785 166.17011617091572 13.008528858847516 -2.4244233699716734e-06 1.6344991500113834e-07 -9.3812145762467301e-06 0.0000000000000000 -3.2843186641670641e-08 2.4857434170092620e-07 -2.1527417052136776e-07 -0.00077399188316534015 -1.8938417014805976e-11 9.2043754305122017e-11 -2.7367628709186111e-10 0.0000000000000000 -42.672974891599750 -171.18173466392949 166.26923354793541 271.88244999766295 0.0000000000000000 0.0000000000000000 0.0000000000000000 0.0000000000000000 3.0066064217585056 3.0132183284851575 1.0066118972561531 1.0028091008323496 2.1876956683048672 2.1936050038065087 1.0033013420380323 
-59.428814499937864 -178.06580655766206 157.62879889293782 -59.428814499937900 -178.06580655766206 157.62879889293788 22.928073712211031 1.4006037679304722e-05 3.6973800664925580e-06 2.3611214368983250e-06 0.0000000000000000 -1.6182557897870268e-11 -7.4274822403630480e-12 -3.0289125652060993e-09 -0.00083380570634060348 8.1082471657037901e-11 7.8464635625425523e-11 -1.5447782259615836e-10 0.0000000000000000 -59.382734921100123 -178.01738339707751 157.75061606229067 243.94852352315442 0.0000000000000000 0.0000000000000000 0.0000000000000000 0.0000000000000000 3.0071189447358799 3.0142359216621979 1.0071169555033246 1.0028919090815891 13.225010102234799 13.231063939659048 1.0035536325299288 
-30.693086882013169 -102.76728423144084 95.095819254736426 -30.693086882013173 -102.76728423144090 95.095819254736412 36.058541596441145 -2.4796965975851701e-05 -3.4034565968625793e-05 8.2680010962395123e-05 0.0000000000000000 -4.5834335156752741e-08 -6.5598699074243896e-07 5.3975384160861748e-07 -0.0017386919233449633 -2.3563881354938253e-10 1.1527094478397323e-09 5.8066135770552743e-10 0.0000000000000000 -30.660097366607719 -102.72526557899965 95.328291536857705 204.58703120518373 0.0000000000000000 0.0000000000000000 0.0000000000000000 0.0000000000000000 3.0017135805555721 3.0034118109626040 1.0016981441313499 1.0016264566687274 46.365089613534366 46.362528864053623 1.0008437055095813 
-18.823549697158086 -110.92078627815002 93.056364813262135 -18.823549697158100 -110.92078627815000 93.056364813262149 76.690089446960300 -2.9515265709830167e-05 9.7968662004512089e-07 6.9239383411634980e-05 0.0000000000000000 -6.7865131916922117e-12 -2.2759433226937631e-12 -7.4014631090690841e-09 -0.0015917772387111426 5.7026220608932671e-10 -8.5616134395867627e-11 -2.8675029358128680e-10 0.0000000000000000 -18.804221549666405 -110.90595113131390 93.354036648627854 267.24800799435923 0.0000000000000000 0.0000000000000000 0.0000000000000000 0.0000000000000000 3.0098627594033798 3.0197275501110474 1.0098647651338803 1.0042171967343339 108.11693286303024 108.11855830390040 1.0049236728357516 
-33.883382117857515 -104.73548290448728 84.769627528238956 -33.883382117857529 -104.73548290448721 84.769627528238942 80.407095462808343 -2.6870202324362263e-05 4.0916867489524930e-07 4.4306717697097769e-05 0.0000000000000000 -1.9882940980150597e-07 -1.0169359346868748e-06 1.0673195248050233e-06 -0.0016170868307210512 -6.2661700243304685e-10 -1.0626087868594841e-10 3.3383605856909452e-10 0.0000000000000000 -33.815892125380543 -104.71065599625929 85.007910193808286 270.69679205096202 0.0000000000000000 0.0000000000000000 0.0000000000000000 0.0000000000000000 3.0140769106366596 3.0281267238232643 1.0140498095235986 1.0053000864844432 93.918793880195196 93.919468149647827 1.0069935765329996 
-18.940588977216191 -100.38924808956671 95.105974010320196 -18.940588977216187 -100.38924808956673 95.105974010320153 58.423444790292443 -3.0170592545433044e-06 -3.2076115972682456e-06 2.7773759976945185e-05 0.0000000000000000 -6.8146469370256052e-12 -1.4750145549413676e-12 -7.2626831215671928e-09 -0.0016352401593896734 3.7665067506342618e-11 8.5002258738299760e-11 1.8558399121212967e-10 0.0000000000000000 -18.921183722278450 -100.37968114352928 95.398064000337470 185.31956687594098 0.0000000000000000 0.0000000000000000 0.0000000000000000 0.0000000000000000 3.0069416648636809 3.0138892835879911 1.0069476066616381 1.0037461111529851 79.503956113474970 79.502322355160203 1.0034728084082569 
-31.163424833197944 -118.02299189157040 173.09338560270069 -31.163424833197947 -118.02299189157034 173.09338560270075 45.533544969404154 -3.7271211879359499e-05 -2.5832378275393268e-05 -1.8592897823211553e-05 0.0000000000000000 -2.7962205938156575e-07 -1.0217014964085739e-09 -4.3937966679137924e-07 -0.00083702780778780090 -1.8834996373802345e-10 1.5395498073318656e-10 -1.4415769605499959e-10 0.0000000000000000 -31.124431206993112 -117.97934695114738 173.21200361760444 258.17126679857051 0.0000000000000000 0.0000000000000000 0.0000000000000000 0.0000000000000000 3.0056190196438894 3.0112088578447929 1.0055898108153019 1.0023273751749557 54.660585769716846 54.700090172645794 1.0027911974555683 
-30.666961433182035 -133.17432116037574 164.69295676788872 -30.666961433182021 -133.17432116037574 164.69295676788872 25.574258820476874 -2.8378915306321125e-05 2.7541657141866312e-06 2.6780241661068810e-06 0.0000000000000000 -2.5462281627523614e-07 7.1399925112991796e-08 -3.2161088772530793e-07 -0.00085616549990286865 -2.5553427498271049e-10 1.0012357360887430e-10 -6.9649424969041652e-11 0.0000000000000000 -30.642131568542830 -133.13454878399213 164.80820313575899 262.24283076768535 0.0000000000000000 0.0000000000000000 0.0000000000000000 0.0000000000000000 3.0026896874431643 3.0053710404531264 1.0026813391266105 1.0011341402722080 33.850897278646670 33.835834379491196 1.0013384220355386 
-42.690256378566517 -120.18846961354232 163.53876036565941 -42.690256378566545 -120.18846961354225 163.53876036565950 5.6552245536294148 -4.1097265901182626e-05 -1.8447274609512519e-05 4.5077707089944966e-06 0.0000000000000000 -2.1404671755301308e-07 4.2604794516740427e-08 -1.2980958812661364e-06 -0.00095705146104250766 5.6555618285811058e-11 -2.2877575124186626e-10 4.1565908743612600e-10 0.0000000000000000 -42.676694985445003 -120.10595080876966 163.70375490782192 268.28772502602959 0.0000000000000000 0.0000000000000000 0.0000000000000000 0.0000000000000000 2.9900449167443863 2.9800989014020320 0.99005398789996568 0.99684925901230081 28.724312028017462 28.744217124642994 0.99501516409730661 
-23.769910221361314 -114.25046821426022 161.70204730798264 -23.769910221361325 -114.25046821426028 161.70204730798278 48.898469381101606 -1.5846380356928012e-05 -1.2147831818171113e-05 -1.0955829632378197e-05 0.0000000000000000 -7.9289413576488776e-12 -2.5360824551512455e-12 -2.7531158464100258e-09 -0.00090069494084567953 -2.5238185250332788e-11 5.7909837470390879e-11 -1.6142924627171533e-10 0.0000000000000000 -23.747323328369049 -114.23396745764113 161.81277151251504 321.01516800445251 0.0000000000000000 0.0000000000000000 0.0000000000000000 0.0000000000000000 3.0082147275591922 3.0164277207694665 1.0082129589322972 1.0033580908483586 55.593460502697162 55.597120251404029 1.0041008421380004 
-6.4746404670085473 -104.99942586340227 109.07745901212751 -6.4746404670085447 -104.99942586340222 109.07745901212751 11.668985761927539 -4.2976914906945956e-06 9.0665008720500555e-06 3.6327376919684184e-05 -3.2855439469050793 -3.9302614981973072e-12 -1.8307438898190753e-12 -6.3165984665047858e-09 -0.0015831550645783515 1.3371754982104511e-10 -3.2360535253170982e-10 -2.8075106517617114e-10 -0.0014546562520558620 -6.4634479885999987 -104.98755276399999 109.33149947120000 327.67017865987640 0.0000000000000000 0.0000000000000000 0.0000000000000000 0.0000000000000000 3.0078531529577792 3.0157136734477703 1.0078605081065639 1.0035151808428175 26.417615303787276 26.470594845920115 1.0039231477656243 
-11.821553548670419 -97.124814515101050 101.16208638253015 -11.821553548670421 -97.124814515101065 101.16208638253013 44.546756678724776 5.4577704183773198e-06 -2.5471385443700151e-06 4.0654895343815236e-05 36.328869530389099 -5.1660316649493332e-12 -1.2159301343572791e-12 -6.8525903840210844e-09 -0.0016295105522831095 -3.2892674623578186e-12 3.0772052873824819e-11 -1.0332793168246880e-10 -0.0016285253811653103 -11.806838433999999 -97.116880539599975 101.43768333439998 212.90238721710071 0.0000000000000000 0.0000000000000000 0.0000000000000000 0.0000000000000000 3.0082666903206774 3.0165615963381058 1.0082949283853289 1.0038940378087511 23.375730780407761 23.398733253543750 1.0041390496877980 
-15.866984952324044 -110.37466475163502 102.82636216642273 -15.866984952324044 -110.37466475163502 102.82636216642275 33.483771292189815 -2.0962334602369707e-05 9.9979889357790594e-06 6.9162272455404307e-05 0.0000000000000000 -6.1025967265648795e-12 -2.2365859164708013e-12 -6.7398858716316559e-09 -0.0016920633810648732 2.1408930612235530e-10 -9.4411227558869179e-11 -1.5534186681343712e-10 0.0000000000000000 -15.849604639409371 -110.36010279166017 103.09742667861765 236.22178992679409 0.0000000000000000 0.0000000000000000 0.0000000000000000 0.0000000000000000 3.0088451928652726 3.0176976180286688 1.0088524295331023 1.0036156221588639 25.449933823784473 25.437254206640613 1.0044168593412612 
-23.772167034208987 -99.543356264870425 102.00855523369498 -23.772167034208980 -99.543356264870440 102.00855523369499 31.222670594405660 -1.8470205978913316e-05 -3.7020929818889420e-05 5.2492526788321262e-05 0.0000000000000000 -7.9304470976260255e-12 -1.4014692184538544e-12 -6.7952620197431193e-09 -0.0017677855978520268 -7.3291234660795247e-10 -1.6648918109732167e-10 -2.8044172066597932e-10 0.0000000000000000 -23.749578654390465 -99.534212460059550 102.28184693721489 211.57004919854941 0.0000000000000000 0.0000000000000000 0.0000000000000000 0.0000000000000000 3.0056537848786764 3.0112796213425828 1.0056258180420865 1.0026656770549400 41.220853007989270 41.240871948195824 1.0028088368788703 
-54.058638934956555 -108.45964388854284 113.61290964042442 -54.058638934956569 -108.45964388854283 113.61290964042442 2.6841617756648182 -4.7550183844080970e-07 -3.7332194925371422e-06 8.6685426201067830e-06 0.0000000000000000 -1.0034248218747494e-07 -1.4871471417862417e-06 -7.3297456825305721e-07 -0.0032117218406924148 -1.1369002837053740e-09 -1.5994276511389007e-09 2.4151508528232652e-09 0.0000000000000000 -54.087034329299712 -108.37170302860723 113.84396407125838 191.01171882188567 0.0000000000000000 0.0000000000000000 0.0000000000000000 0.0000000000000000 2.9930939073008300 2.9861794428456410 0.99308552638720338 0.99684581448254939 25.354508054813483 25.365435075757304 0.99653814016183861 
-41.666203359439422 -107.82967027408351 110.75065693419350 -41.666203359439422 -107.82967027408355 110.75065693419354 6.1854295789562430 7.3582209712274623e-06 -1.0420247272974046e-05 -2.2176995807374461e-06 0.0000000000000000 -5.5830215006200622e-08 -9.9917533533828177e-07 -6.1337149623301153e-07 -0.0020764501886625496 -4.8124053226190385e-10 5.6148768941356187e-10 3.4893828751147192e-10 0.0000000000000000 -41.690910404717421 -107.74885629568415 110.97670241767709 270.34727434602189 0.0000000000000000 0.0000000000000000 0.0000000000000000 0.0000000000000000 2.9952281667109291 2.9904472437846432 0.99521912080197705 0.99782457743050224 28.850230192967469 28.845528203982813 0.99760652361822033 