# For a description of the Tecplot format see the Tecplot User's guide.
#
Variables=x,y,z,s_u,s_v,s_w,s_p,mono_f_vel_u,mono_f_vel_v,mono_f_vel_w,const,u_nu,v_nu,w_nu,p_nu,x_nu,y_nu,z_nu,const,u_ref,v_ref,w_ref,vol_ref,x_ref,y_ref,z_ref,const,I1,I2,I3,J,p1,p2,p3
Zone f=fepoint, n=356, e=1130, et=brick, c=black
-65.8925 -97.5399 91.5475 -65.892506105368241 -97.539879188051188 91.547548405467566 -32.515977658556530 -1.4631809472757778e-16 8.2421737082737237e-17 1.5727771423083316e-16 3.0088431915084604e-32 8.0646523833993733e-10 5.7126525732087436e-11 3.3958241685283497e-07 1.3672279805579033e-05 7.2593179944248526e-23 -4.7900134944957169e-23 -4.3883655548504389e-24 -7.7652742399582917e-33 -65.754724465942431 -97.517594547729473 92.373562431030237 2074.8615187338191 0.0000000000000000 0.0000000000000000 0.0000000000000000 0.0000000000000000 3.0214268876340928 3.0429595515443801 1.0215328134725530 1.0107141671501390 180.72406308728893 174.32047996904322 1.0107090647736963 
-75.902937677356149 -130.62778827177442 77.957156967574392 -75.902937677356164 -130.62778827177448 77.957156967574377 -32.443145667796941 -2.8894519990158770e-16 -7.1916170318019834e-18 -3.1616387351825326e-19 -31.381694957300855 9.1212856365152629e-10 1.7324719436828670e-10 3.8123022538805174e-07 1.3640756718392386e-05 1.2897281192498141e-22 1.1425846337495704e-23 1.1240521770884741e-25 1.3751586486699997e-05 -75.747104543999981 -130.56019973999997 78.884476808000016 2128.8259272129790 0.0000000000000000 0.0000000000000000 0.0000000000000000 0.0000000000000000 3.0214339104665466 3.0429737084994106 1.0215399479094489 1.0107141671501390 181.33404166760960 167.78236502748544 1.0107125941313770 
-63.555842751269914 -121.85018842560692 70.255903176231826 -63.555842751269907 -121.85018842560692 70.255903176231826 -31.414964623740943 7.1802196235881229e-17 3.6467562826086039e-17 2.2239077671166360e-18 -29.615420381229562 7.8180972459818133e-10 1.4244483370617900e-10 4.0483074559283239e-07 1.3656878695623292e-05 -4.9194952289858518e-23 -8.8537363316368444e-23 5.5006645025904836e-23 1.2023335850024312e-05 -63.422274742800013 -121.79461816400000 71.240629883439979 1237.7701333319521 0.0000000000000000 0.0000000000000000 0.0000000000000000 0.0000000000000000 3.0214459742785227 3.0429977713870544 1.0215519466507137 1.0107141671501392 177.17753317150161 129.47123413788199 1.0107185294755150 
-56.272752767570985 -132.14921885914742 75.697250475554910 -56.272752767570985 -132.14921885914740 75.697250475554924 -29.348430925569744 1.8542182698398380e-16 7.6447756339322510e-17 -1.4374533818196889e-16 -30.124543884645728 7.0493656398329375e-10 1.7859408396603271e-10 3.8815572289685468e-07 1.2820408802611519e-05 -4.3725064672602253e-23 5.4919621562996959e-24 9.3485608399733801e-23 1.5084905239627280e-05 -56.152318124399997 -132.07954718800002 76.641416164000006 2090.5778096190215 0.0000000000000000 0.0000000000000000 0.0000000000000000 0.0000000000000000 3.0214176052990207 3.0429410640460004 1.0215236086690671 1.0107141671501390 175.35222596753940 156.39655557403717 1.0107045122730958 
-123.13887791904891 -110.42733344599993 88.357633032386545 -123.13887791904889 -110.42733344599995 88.357633032386531 -36.942514501807111 -1.8203455680156269e-17 4.2021127304141883e-17 -2.4580301716392540e-16 -37.745029733963356 1.4107084077286112e-09 1.0235262637436901e-10 3.4935792769807961e-07 1.4700612173650259e-05 -8.6003367746159437e-24 -3.2586981699412062e-23 4.7455541769442294e-23 1.4826937382387335e-05 -122.89786571200003 -110.38740333199999 89.207425400000020 2092.2379289329847 0.0000000000000000 0.0000000000000000 0.0000000000000000 0.0000000000000000 3.0214408555229828 3.0429875661202379 1.0215468602943218 1.0107141671501387 190.10130750146797 188.99275525397076 1.0107160137122337 
-123.01059646116234 -128.56888455338699 92.664251089799137 -123.01059646116234 -128.56888455338702 92.664251089799123 -35.652854393705034 -2.4386012566497502e-17 3.2953963423196632e-17 -2.3560107313817494e-16 -37.058692543890743 1.4093548793281396e-09 1.6602250130226539e-10 3.3616028560778943e-07 1.4262774021087558e-05 -3.4512129196803671e-24 -3.4935617273240801e-23 2.5798923848500665e-23 1.3524911256829063e-05 -122.76981557999994 -128.50411506799998 93.481940963999989 2295.0048277193882 0.0000000000000000 0.0000000000000000 0.0000000000000000 0.0000000000000000 3.0214429859895726 3.0429917514549438 1.0215489149553032 1.0107141671501390 187.22588738350609 189.27280183319408 1.0107170296752133 
-87.510710244163008 -119.60566763819980 107.30314998811043 -87.510710244162979 -119.60566763819985 107.30314998811039 -32.510772716310456 -8.3215248808708142e-17 1.2335570825517897e-16 -2.3108642985263790e-16 -3.5179421322093533e-31 1.0346542476946663e-09 1.3456888381391255e-10 2.9129932044291706e-07 1.3337616845332798e-05 5.2680325678431006e-23 -7.0011199419656585e-23 4.4321990848000751e-23 8.8309868072296148e-32 -87.333945182495114 -119.55317056945796 108.01171823852533 1853.2119812635015 0.0000000000000000 0.0000000000000000 0.0000000000000000 0.0000000000000000 3.0214260414856775 3.0429581021268892 1.0215322108622609 1.0107141671501390 181.77291691789375 182.42505447117185 1.0107087671936059 
-122.13601713198155 -119.00096045301017 106.32177380258710 -122.13601713198156 -119.00096045301017 106.32177380258712 -33.699055534626666 -1.0829630004466713e-17 7.2162309015900201e-17 -1.1410636429531051e-16 -33.419433883719314 1.4001231250782009e-09 1.3245091134983511e-10 2.9430675230202041e-07 1.3603487253393463e-05 -6.3293952392978273e-25 -4.7172586195087885e-23 3.3597349038928062e-23 1.3669632856302238e-05 -121.89681335200000 -118.94929134799999 107.03765745040002 1571.7251237143605 0.0000000000000000 0.0000000000000000 0.0000000000000000 0.0000000000000000 3.0214345563285359 3.0429747379069068 1.0215403306973432 1.0107141671501394 183.37037367347628 183.47411671195124 1.0107127834999907 
-44.274301966573397 -163.73724453849712 123.05874645018599 -44.274301966573383 -163.73724453849715 123.05874645018596 -24.790624776352825 3.0375404466483126e-16 -3.4960601134306621e-16 1.5430085638014840e-16 0.0000000000000000 5.7829038432877233e-10 2.8946800512130727e-10 2.4301623291478336e-07 1.0856916615272293e-05 -1.8768720420258442e-22 2.0447917079476377e-22 1.7137761513389190e-23 0.0000000000000000 -44.175503749389662 -163.62432261291502 123.64986896362305 1288.7765825848380 0.0000000000000000 0.0000000000000000 0.0000000000000000 0.0000000000000000 3.0213944642771646 3.0428942170521007 1.0214999009625585 1.0107344196293016 165.83091398745228 167.54355215255831 1.0106927860873147 
-15.525183683109409 -143.95059854994622 135.56509065912599 -15.525183683109413 -143.95059854994628 135.56509065912593 -25.081518585145599 7.7520762006607130e-17 -2.0698167109551861e-16 1.2514834622020445e-16 -25.569290873016751 2.7484386294629454e-10 2.2001206412269878e-10 2.0469047656845873e-07 1.0826707645637056e-05 -2.4278011984372793e-23 1.3065511746432939e-22 -2.2615033936088070e-23 1.0471988483988319e-05 -15.478227839600008 -143.86476845600004 136.06298808800005 1207.7015194609139 0.0000000000000000 0.0000000000000000 0.0000000000000000 0.0000000000000000 3.0213095686259592 3.0427239028155944 1.0214144817578510 1.0107041896685061 167.92941803178604 167.79023078255278 1.0106505254407721 
-44.274301966573397 -163.73724453849712 138.81434291226154 -44.274301966573383 -163.73724453849715 138.81434291226162 -28.299641928667917 2.1638732199185793e-17 -1.5509417211548332e-16 1.6401596547557716e-16 0.0000000000000000 5.7829038432877233e-10 2.8946800512130721e-10 1.9473314560869428e-07 1.1839327265253374e-05 -1.7382449178318253e-23 1.1763737719746309e-22 -5.3267133281827211e-23 0.0000000000000000 -44.175503749389669 -163.62432261291511 139.28801968872074 2260.0113226803110 0.0000000000000000 0.0000000000000000 0.0000000000000000 0.0000000000000000 3.0214117726416574 3.0429291796342901 1.0215175562200145 1.0107097850813516 174.37825046495354 174.07773300816885 1.0107015170716673 
-5.9114931170987486 -161.56868203462972 129.88515900808810 -5.9114931170987477 -161.56868203462972 129.88515900808810 -30.021449079903643 2.0505139550420606e-16 -1.6868739735962870e-16 1.0081131734697173e-16 -31.142860031962808 1.7337176486109660e-10 2.8184438116696242e-10 2.2209665773154086e-07 1.2284214336046849e-05 -9.8640984145786760e-23 1.1635041147924156e-22 -3.1882747128686639e-23 1.2050196291429693e-05 -5.8818733370400009 -161.45872929999999 130.42539591680000 1840.5999298976626 0.0000000000000000 0.0000000000000000 0.0000000000000000 0.0000000000000000 3.0214544780410644 3.0430149338722856 1.0215606058100997 1.0107141671501381 177.55844390498441 177.30944482617221 1.0107228134700035 
-9.8173310646172744 -107.14440469926882 182.84362444745753 -9.8173310646172762 -107.14440469926879 182.84362444745756 -33.017843490822948 -4.8928003090483875e-17 2.4667563881291023e-17 9.9512567320634756e-17 -33.229006881552529 2.1459789154021361e-10 9.0833396360068264e-11 5.9805232766052541e-08 1.2109980493731127e-05 -6.1419340581917979e-24 -2.6517145602594237e-23 5.7940454435473360e-24 1.2368734493711119e-05 -9.7806680107999995 -107.10896956400003 182.98909712000000 1021.2952016557671 0.0000000000000000 0.0000000000000000 0.0000000000000000 0.0000000000000000 3.0214369490147512 3.0429797179132017 1.0215429185205311 1.0107141671501390 182.46785306664285 182.41868790543464 1.0107140636371492 
-17.616493761881443 -108.67476497314870 193.32658644484451 -17.616493761881440 -108.67476497314871 193.32658644484448 -34.009673613042573 -7.9540751215624567e-17 3.0081964654628527e-17 5.0972069953936787e-17 -34.477537965447212 2.9691636302398022e-10 9.6196800525305548e-11 2.7680151060138769e-08 1.1901244340428251e-05 -2.5821704754156681e-23 -2.8940111131813979e-23 1.8573843005703638e-23 1.2224462475933885e-05 -17.565766725200003 -108.63723447200002 193.39391677600000 1230.2822850381203 0.0000000000000000 0.0000000000000000 0.0000000000000000 0.0000000000000000 3.0214360366490642 3.0429778831582932 1.0215419961067502 1.0107141671501378 184.73273226436575 184.68816878643423 1.0107136072854084 
-44.274301966573397 -119.60566763819980 170.32553583641268 -44.274301966573468 -119.60566763819968 170.32553583641297 -33.240681693217532 1.0183438339257180e-17 9.3110616694897112e-17 1.5004101362502943e-16 0.0000000000000000 5.7829038432877233e-10 1.3456888381391255e-10 9.8166970108337637e-08 1.2132171025116603e-05 4.8347527176592484e-24 -5.2013955374563870e-23 3.4627869652974768e-23 0.0000000000000000 -44.175503749389591 -119.55317056945772 170.56432113891603 1872.3464537223574 0.0000000000000000 0.0000000000000000 0.0000000000000000 0.0000000000000000 3.0214426764097557 3.0429912022414367 1.0215486755051573 1.0107141671501396 182.87892524194282 183.04268652856942 1.0107169120317165 
-9.3676921225663019 -124.45624693511617 188.76328209847156 -9.3676921225663019 -124.45624693511617 188.76328209847156 -33.266959335893453 -4.0873950254198424e-17 -3.4421623654174771e-17 7.1924301874168388e-17 -33.257579862666098 2.0985217036306736e-10 1.5158940769310902e-10 4.1664411698505426e-08 1.1981133754256671e-05 -1.7130202629028439e-23 1.4623521543931329e-23 -2.3309574186989219e-24 1.2092887918359693e-05 -9.3318398883999993 -124.39710846400000 188.86462832000004 1016.3527334425750 0.0000000000000000 0.0000000000000000 0.0000000000000000 0.0000000000000000 3.0214356261387585 3.0429770598545929 1.0215415833082202 1.0107141671501385 183.05526170704255 183.02511207029985 1.0107134030476150 
-44.274301966573397 -163.73724453849712 107.30314998811043 -44.274301966573383 -163.73724453849715 107.30314998811039 -27.421177643284821 9.5847563506973946e-17 -4.5783304830631182e-16 -4.1578067169115587e-16 1.9687876731586541e-30 5.7829038432877233e-10 2.8946800512130721e-10 2.9129932044291706e-07 1.1650955543408608e-05 -4.9352917070146310e-23 2.4745190056735076e-22 4.0189071196705605e-23 -4.9448783810558996e-31 -44.175503749389662 -163.62432261291499 108.01171823852535 1450.3671205666894 0.0000000000000000 0.0000000000000000 0.0000000000000000 0.0000000000000000 3.0215510472060654 3.0432096934932291 1.0216587999137792 1.0107544395144770 172.86160599534156 174.44418044927664 1.0107713875844153 
-61.283124457213766 -161.06410774864068 85.128922886227699 -61.283124457213738 -161.06410774864068 85.128922886227684 -32.486012099713015 -1.5524699960776029e-16 -3.8061356014923161e-16 -9.0395182536942681e-17 -33.072760583539534 7.5781854055878572e-10 2.8008564911807809e-10 3.5925231878231051e-07 1.2883272612315971e-05 7.3529797863503750e-23 2.0328224450460543e-22 7.9648733142555903e-23 1.3681546224036005e-05 -61.153654769600031 -160.95484587600001 86.002782780800032 1645.6757988676138 0.0000000000000000 0.0000000000000000 0.0000000000000000 0.0000000000000000 3.0213625467237879 3.0428310249516581 1.0214686287281298 1.0106968985270768 182.33641756734545 182.14760584912432 1.0106773122284365 
-44.331600048598759 -168.12053401978119 82.382054080297422 -44.331600048598752 -168.12053401978119 82.382054080297408 -34.290212355798467 6.5272978723693915e-18 -3.8312561227261629e-16 -5.7856126658809747e-17 -31.685696185617243 5.7889864776838884e-10 3.0484265112207254e-10 3.6767010658245175e-07 1.3348625315072094e-05 1.3915106282829281e-24 2.0955117543555088e-22 5.5489817737868698e-23 1.3313503551508019e-05 -44.232698507600013 -168.00161050399998 83.276389748800028 1737.4139093181343 0.0000000000000000 0.0000000000000000 0.0000000000000000 0.0000000000000000 3.0214327240267540 3.0429710202815339 1.0215384452566876 1.0107141671501390 184.68887216268013 184.39839402420435 1.0107118508362236 
-44.274301966573397 -185.80303298864575 107.30314998811043 -44.274301966573383 -185.80303298864581 107.30314998811041 -35.033150861414711 -1.4130264375590249e-17 -1.9546797424392319e-16 -1.7877673893866709e-16 -1.4569055955324696e-31 5.7829038432877233e-10 3.6689626337071951e-10 2.9129932044291706e-07 1.3530833962724552e-05 1.9089392572162276e-23 1.2259350656082497e-22 9.1872352407973638e-24 3.6700952957837287e-32 -44.175503749389676 -185.65989863464350 108.01171823852533 1616.4576808433910 0.0000000000000000 0.0000000000000000 0.0000000000000000 0.0000000000000000 3.0214153467441953 3.0429363227519270 1.0215211250359102 1.0107097406163512 186.34367719472272 186.24331478732259 1.0107032821569704 
-87.510710244163008 -141.67145608834846 138.81434291226154 -87.510710244162979 -141.67145608834838 138.81434291226157 -31.637508688451462 -7.3794097350481179e-17 -3.0919766981991286e-17 7.3937168476212354e-17 0.0000000000000000 1.0346542476946663e-09 2.1201135291804007e-10 1.9473314560869428e-07 1.2713989669409197e-05 4.3414291058687918e-23 2.1586430761793691e-23 -6.9621051213651697e-24 0.0000000000000000 -87.333945182495100 -141.58874659118649 139.28801968872074 1877.7986991733408 0.0000000000000000 0.0000000000000000 0.0000000000000000 0.0000000000000000 3.0213814414088382 3.0428680479022163 1.0214867548755988 1.0106861878802365 180.06215441094346 179.63228298952831 1.0106862757913762 
-65.892506105368213 -163.73724453849712 138.81434291226154 -65.892506105368255 -163.73724453849715 138.81434291226165 -30.047191738476165 -1.5596816334543725e-16 -5.7423824063598729e-17 1.2707545669107535e-16 -3.6560108268495615e-32 8.0646523833993754e-10 2.8946800512130721e-10 1.9473314560869426e-07 1.2289948354042918e-05 9.6197182972549198e-23 4.3855957741271117e-23 -2.6422375961682368e-23 9.1325196798355845e-33 -65.754724465942374 -163.62432261291517 139.28801968872077 2018.1238718776010 0.0000000000000000 0.0000000000000000 0.0000000000000000 0.0000000000000000 3.0213750286990289 3.0428552838196912 1.0214804035409129 1.0107015743619980 177.15947060080612 177.18562813949777 1.0106831374664800 
-87.510710244163008 -163.73724453849712 123.05874645018599 -87.510710244162979 -163.73724453849715 123.05874645018595 -32.279842799117134 -1.1276314202988518e-16 -7.4607236708709759e-17 -6.2801026834291503e-17 0.0000000000000000 1.0346542476946663e-09 2.8946800512130721e-10 2.4301623291478341e-07 1.2959770363570440e-05 6.6558610028468005e-23 4.5424350545098644e-23 1.3313859271692233e-23 0.0000000000000000 -87.333945182495114 -163.62432261291505 123.64986896362312 1549.0027140339625 0.0000000000000000 0.0000000000000000 0.0000000000000000 0.0000000000000000 3.0214604547409185 3.0430268926649533 1.0215665877885234 1.0107167990725163 181.56214262860578 181.90673219482170 1.0107257721950205 
-87.510710244163008 -141.67145608834846 123.05874645018599 -87.510710244162979 -141.67145608834838 123.05874645018596 -29.705914319597014 -3.0681680481199631e-16 -1.1488076666229001e-16 7.5865717146786795e-18 0.0000000000000000 1.0346542476946661e-09 2.1201135291804007e-10 2.4301623291478336e-07 1.2294864274923494e-05 1.7909104828286164e-22 6.0040059669767877e-23 1.2935337133764312e-23 0.0000000000000000 -87.333945182495086 -141.58874659118649 123.64986896362313 1389.1126189879024 0.0000000000000000 0.0000000000000000 0.0000000000000000 0.0000000000000000 3.0213740634044650 3.0428522156207678 1.0214782976523571 1.0107089596569299 176.22050339513339 175.87635451931695 1.0106821005822271 
-45.298278649877432 -110.37356733355848 47.694215994613280 -45.298278649877425 -110.37356733355848 47.694215994613280 -40.367278400272149 7.2000700410129249e-17 1.3730240612654925e-16 -1.6703736665736627e-16 -40.355742262868269 5.8909957120767399e-10 1.0216916201954973e-10 4.7397113123182072e-07 1.6309246797733691e-05 1.4186021667278104e-23 -3.2856585983861456e-23 7.8632668535602738e-23 1.5856408110237890e-05 -45.197633928000002 -110.33371083599998 48.847122559999995 1069.0094105005942 0.0000000000000000 0.0000000000000000 0.0000000000000000 0.0000000000000000 3.0214376627979105 3.0429811471960186 1.0215436340181907 1.0107141671501396 195.33175427065501 195.23677867700013 1.0107144176098628 
-57.245822419228212 -98.855343302057989 45.053444635561966 -57.245822419228247 -98.855343302057946 45.053444635561974 -43.145711379008077 -8.5358441761363914e-17 1.4389930461579088e-16 -2.2744057837264094e-16 -43.245718012022500 7.1520726493967669e-10 6.1742944090781293e-11 4.8206378155946084e-07 1.7189783099093628e-05 8.3989600541281538e-23 -2.3214625774865828e-23 7.5659294146087776e-23 1.8187436495300154e-05 -57.123633070400032 -98.831257531200038 46.226036100800002 1475.5774262919704 0.0000000000000000 0.0000000000000000 0.0000000000000000 0.0000000000000000 3.0214372087423182 3.0429802343018748 1.0215431751698114 1.0107141671501392 200.56589489449169 200.56025185307379 1.0107141906408659 
-60.267278971250498 -105.62034220429376 56.171185885755314 -60.267278971250477 -105.62034220429381 56.171185885755328 -39.065746004533437 8.3170384845409781e-18 4.1312337144433241e-16 -3.8414999979209920e-16 -32.072093723531957 7.4709853234433698e-10 8.5482093625799406e-11 4.4799341858414721e-07 1.5882941200467740e-05 7.2851488307939561e-23 -1.1633914163026289e-22 2.2100253735826616e-22 1.8929091092067660e-05 -60.139641125599979 -105.58699381199996 57.260903223199996 1724.6135661994952 0.0000000000000000 0.0000000000000000 0.0000000000000000 0.0000000000000000 3.0214361241758216 3.0429780582324240 1.0215420836571520 1.0107141671501394 192.41531583651144 192.37284911644625 1.0107136507264873 
-19.460072361930802 -88.125450794725268 56.612650059965183 -19.460072361930802 -88.125450794725253 56.612650059965183 -39.382982805251629 -6.7798280052087821e-17 5.1414379030845138e-17 -3.3224551551987816e-16 -39.669653502808323 3.1637699057784907e-10 2.4079141458521747e-11 4.4664055010024128e-07 1.5986282842456473e-05 1.3301457788418477e-23 -7.9076071529098056e-23 2.4664354250635061e-23 1.6040121299514367e-05 -19.406020858399991 -88.116056368799974 57.699076624800000 1439.6451283969650 0.0000000000000000 0.0000000000000000 0.0000000000000000 0.0000000000000000 3.0214366637542485 3.0429791394415484 1.0215426252884823 1.0107141671501396 193.94608222720441 194.08976692099367 1.0107139186554315 
-58.901712261690626 -178.72176384405466 77.826890941102121 -58.901712261690612 -178.72176384405472 77.826890941102121 -38.450824668216342 -5.9063968090809861e-17 -7.3391023530089673e-17 -9.8305309227588282e-17 -39.103307883156994 7.3268230024736702e-10 3.4203351262362958e-10 3.8162942228581187e-07 1.4450304321446409e-05 3.4368778342064661e-23 1.3874391603568697e-23 7.3484988249604576e-23 1.5708589867033195e-05 -58.776536899199989 -178.58832514800000 78.755181813599989 1584.4809985467919 0.0000000000000000 0.0000000000000000 0.0000000000000000 0.0000000000000000 3.0214686302937843 3.0430434313218977 1.0215749515321926 1.0107141671501392 192.62952915439931 192.73255653578587 1.0107299111782877 
-74.616890737275867 -185.08496445216068 71.248439154015159 -74.616890737275867 -185.08496445216068 71.248439154015159 -39.658502225593942 -4.8285854780479231e-17 -6.1165901145007028e-17 -3.1006869400924885e-17 -39.813745669480284 8.9855844639941108e-10 3.6437722283899632e-10 4.0178912219523960e-07 1.4822105493267743e-05 1.5181576622367599e-23 3.6259001878532799e-24 2.3289107920218366e-23 1.4549940896366205e-05 -74.463376691600018 -184.94281327599995 72.225767276240006 1182.3928641350060 0.0000000000000000 0.0000000000000000 0.0000000000000000 0.0000000000000000 3.0214318119700567 3.0429692058409050 1.0215375427913682 1.0107141671501394 194.77788271184633 194.75190010506643 1.0107114038416167 
-69.881748619194894 -211.76714972483256 85.722835024026153 -69.881748619194909 -211.76714972483254 85.722835024026153 -38.918764968813178 5.3674605594285044e-18 1.4991897158474718e-17 -1.0268968869464349e-16 -38.852346984229094 8.4857653889769392e-10 4.5803380532838389e-10 3.5743227733142646e-07 1.4549614510835476e-05 -7.0827435089641776e-24 4.4094311742005373e-24 2.2695339494259417e-23 1.4658835651457234e-05 -69.736773305200003 -211.58846536000007 86.592267764799999 1391.6778601551057 0.0000000000000000 0.0000000000000000 0.0000000000000000 0.0000000000000000 3.0214452169711765 3.0429965173843412 1.0215514507878858 1.0107141671501392 192.97913208504005 192.98403650263461 1.0107182851561038 
-86.989669581958367 -207.44668540270146 89.466602367233136 -86.989669581958395 -207.44668540270143 89.466602367233151 -38.362748272769181 4.9925337854720637e-17 -2.2874375953564425e-17 -1.2326821593831697e-16 -39.865435045298568 1.0291573947218691e-09 4.4286127542925153e-10 3.4595948927851334e-07 1.4436562646719524e-05 -1.7902011853492860e-23 1.3220756474141791e-23 -1.4137836632495994e-23 1.4627104576534741e-05 -86.813844096400004 -207.27391660800001 90.308128229600001 1955.0875990986240 0.0000000000000000 0.0000000000000000 0.0000000000000000 0.0000000000000000 3.0214594976059166 3.0430250643834071 1.0215657170372394 1.0107141671501387 192.96133655392239 192.98165982500402 1.0107253427053651 
-74.526964790666938 -212.76539467960217 99.893280635525528 -74.526964790666938 -212.76539467960214 99.893280635525528 -37.450236915793980 -8.4909458922431834e-18 6.0718114437856302e-18 -3.1859427164389297e-17 -37.907425013808819 8.9761103758134751e-10 4.6153494914769055e-10 3.1400688760285789e-07 1.4132765316515332e-05 7.1384947105811035e-24 -2.4942313557182097e-24 7.2736840616944152e-24 1.4228533027442104e-05 -74.373612905599998 -212.58534351999998 100.65708370800000 988.41240310934302 0.0000000000000000 0.0000000000000000 0.0000000000000000 0.0000000000000000 3.0214613380559827 3.0430289971239324 1.0215678100772152 1.0107141671501383 191.17201165767636 191.20179972974367 1.0107263786615308 
-65.892506105368213 -185.80303298864575 107.30314998811043 -65.892506105368255 -185.80303298864581 107.30314998811043 -35.482386881395271 8.6375273639284735e-18 -1.3788674259033873e-16 -1.9283563475802519e-16 -9.3101856731434129e-31 8.0646523833993754e-10 3.6689626337071957e-10 2.9129932044291701e-07 1.3679676501384156e-05 -3.6829148084281622e-25 8.8163667302875165e-23 9.8616099602881554e-24 2.3385991907704056e-31 -65.754724465942374 -185.65989863464350 108.01171823852535 1808.0980320372519 0.0000000000000000 0.0000000000000000 0.0000000000000000 0.0000000000000000 3.0213468512186923 3.0427978236289301 1.0214511173672913 1.0106908449577385 186.80212539253992 186.61279480224135 1.0106686460588963 
-83.631126562995647 -208.53488519944045 108.32393356810785 -83.631126562995647 -208.53488519944042 108.32393356810783 -36.299901176332902 1.5590928278728363e-17 -2.0808593431089713e-17 -1.3791963678798023e-16 -35.877708584721994 9.9369617742595138e-10 4.4668821419513454e-10 2.8817112140977491e-07 1.3866904051256297e-05 -9.1111275121857262e-24 5.5608693962425840e-24 3.8341631973894769e-23 1.3837753192066333e-05 -83.461357431600007 -208.36062644399999 109.02489266960001 1287.0831768928649 0.0000000000000000 0.0000000000000000 0.0000000000000000 0.0000000000000000 3.0214685209040417 3.0430433473438119 1.0215749773389089 1.0107141671501381 188.16991833642641 188.38848832427988 1.0107299237855798 
-41.652911920409665 -130.11315633887762 64.728726881436046 -41.652911920409672 -130.11315633887762 64.728726881436046 -34.326722386203649 1.0338923376427157e-16 9.9062350313548652e-17 -2.2138476018899990e-16 -34.405268772019895 5.5062139223127637e-10 1.7144774488997425e-10 4.2176880898914254e-07 1.4347270153484337e-05 -1.2778331846969939e-23 -4.4711726011606356e-24 1.2616229077294354e-22 1.5608518314678026e-05 -41.558840772800004 -130.04627243999997 65.754654395919971 2180.9238908936368 0.0000000000000000 0.0000000000000000 0.0000000000000000 0.0000000000000000 3.0214442545260995 3.0429943947725850 1.0215502899898310 1.0107141671501390 185.62007348481694 189.18129765737328 1.0107177099220128 
-22.848259172202699 -134.51802969767377 54.806100750497507 -22.848259172202695 -134.51802969767377 54.806100750497521 -37.271612648999096 7.1639916254490881e-17 3.9163433517835175e-17 -8.7048986521844305e-17 -37.412559805876903 3.5213952934154418e-10 1.8691692638128643e-10 4.5217673272368581e-07 1.5263167760016534e-05 -9.6157970518855028e-24 8.3380578856105117e-24 2.6716402530100450e-23 1.5101515094593120e-05 -22.788097858800000 -134.44511465599999 55.905993737599999 935.86986824075086 0.0000000000000000 0.0000000000000000 0.0000000000000000 0.0000000000000000 3.0214331815212714 3.0429721358236610 1.0215391038210988 1.0107141671501390 189.99066645332482 189.52318890081250 1.0107121768214145 
-11.064681760186483 -103.63306397136158 61.055332320998218 -11.064681760186486 -103.63306397136154 61.055332320998232 -37.052544280123001 -6.7005395844271808e-17 -2.2766303750350989e-17 -3.1181154850057712e-16 -36.743379153157242 2.2776400210311460e-10 7.8502232492283497e-11 4.3302593866201267e-07 1.5198246751237975e-05 4.7174623598001328e-24 -4.7386618632737285e-23 2.3827414665319552e-23 1.5199828354670587e-05 -11.025769398400001 -103.60243655599999 62.108642139439993 1284.9349949311236 0.0000000000000000 0.0000000000000000 0.0000000000000000 0.0000000000000000 3.0214353654111430 3.0429765312950163 1.0215413154647732 1.0107141671501394 190.34923767082989 190.02738785113354 1.0107132707704847 
-29.065627691767951 -140.84588754655249 69.077738278516264 -29.065627691767954 -140.84588754655249 69.077738278516264 -33.987185715575563 8.8358742790249179e-17 1.1876797284171830e-16 -2.4287848328003665e-16 -33.468536913528787 4.1776207840293900e-10 2.0910806419749401e-10 4.0844123971872643e-07 1.4127433971652011e-05 -2.4295020905982359e-23 1.0235233227539231e-23 1.1390837828568857e-22 1.5703814548621348e-05 -28.994254794799993 -140.76430841599998 70.071247290159988 2176.9829965296321 0.0000000000000000 0.0000000000000000 0.0000000000000000 0.0000000000000000 3.0214484622652513 3.0430028746482938 1.0215545622792648 1.0107141671501392 183.96483117009890 182.56900410139789 1.0107198230447800 
-103.61219303117237 -194.20856615129495 93.226920589995018 -103.61219303117240 -194.20856615129495 93.226920589995004 -37.393313127082855 -2.2978833355891492e-17 1.2996282613986764e-18 -9.8674630361846714e-17 -38.417863058817368 1.2045948370731363e-09 3.9641331883721870e-10 3.3443597091675775e-07 1.4240211602229521e-05 6.1662881507892965e-24 -1.4119622943702211e-23 3.9919159079360414e-24 1.4040214403221027e-05 -103.40639267600000 -194.05392295999994 94.040416199999996 2662.2783756828549 0.0000000000000000 0.0000000000000000 0.0000000000000000 0.0000000000000000 3.0214565241490798 3.0430192618475798 1.0215628883826768 1.0107141671501385 190.63275364153876 190.63497388059866 1.0107239435863664 
-82.676548596007208 -162.41249041118030 76.866443266300081 -82.676548596007237 -162.41249041118036 76.866443266300109 -37.880522575814666 -1.4546665844981630e-16 -1.1635402660286483e-16 -1.7598468861174226e-16 -37.288180707572252 9.8362137532226335e-10 2.8481944580605045e-10 3.8457272077963012e-07 1.4490950490957744e-05 5.8189144456054860e-23 3.4823924221287837e-23 1.3809549034748898e-22 1.6643005964825686e-05 -82.508500824799995 -162.30138233600007 77.801893530400037 2229.3857910936085 0.0000000000000000 0.0000000000000000 0.0000000000000000 0.0000000000000000 3.0214703285811084 3.0430468713928276 1.0215766933566603 1.0107141671501396 191.36516029757425 191.56235594587812 1.0107307731247639 
-28.060655888391526 -125.12211475073703 126.99764556570489 -28.060655888391548 -125.12211475073708 126.99764556570483 -22.509484052251157 -1.1824612076952255e-16 2.6528584765410515e-17 3.7092191737890336e-16 -4.1769145907779437e-31 4.0715477864217142e-10 1.5392601082631072e-10 2.3094545054114235e-07 1.0120454931548666e-05 1.0098138950511457e-22 -1.2965244817714887e-23 -6.3538620095625739e-23 1.0433426604622927e-31 -27.991095225219734 -125.06206457489009 127.55940664489751 1124.7619503421174 0.0000000000000000 0.0000000000000000 0.0000000000000000 0.0000000000000000 3.0214046445952683 3.0429144622819426 1.0215099656263360 1.0107239547632636 162.45502797027831 162.44361489397608 1.0106977594845103 