# For a description of the Tecplot format see the Tecplot User's guide.
#
Variables=x,y,z,s_u,s_v,s_w,s_p,mono_f_vel_u,mono_f_vel_v,mono_f_vel_w,const,u_nu,v_nu,w_nu,p_nu,x_nu,y_nu,z_nu,const,u_ref,v_ref,w_ref,vol_ref,x_ref,y_ref,z_ref,const,I1,I2,I3,J,p1,p2,p3
Zone f=fepoint, n=356, e=1130, et=brick, c=black
-67.3263 -97.7706 82.3583 -67.326317599694377 -97.770637581821561 82.358346385725582 -180.80838273658713 -1.7304915691686847e-15 9.6652099243141544e-16 2.4157338622108284e-15 2.9730556165928493e-30 8.6454433084748317e-08 4.6343637816192987e-09 0.00015720386647544160 0.0051552321454457813 3.6399233254506031e-20 -2.1819056099537642e-20 -4.4748253467253385e-21 -3.8777683336964729e-31 -65.754724465942431 -97.517594547729473 92.373562431030237 2074.8615187338191 0.0000000000000000 0.0000000000000000 0.0000000000000000 0.0000000000000000 3.2633094100069728 3.5418223099921748 1.2787615752662944 1.1308780311059297 1733.4611145733529 1737.6477712751712 1.1308234076630230 
-77.524600322205174 -131.32767037910824 67.640952778691798 -77.524600322205174 -131.32767037910824 67.640952778691812 -180.53568341389632 -3.4974135854245917e-15 -4.3746446725319959e-16 2.4596185167058757e-16 -166.16720380331907 9.7781283431297439e-08 1.4055854480332641e-08 0.00017648400616465662 0.0051531840019338063 6.9434037921727540e-20 3.1537149647663188e-21 -2.2523108937565345e-21 0.0049244025324499544 -75.747104543999981 -130.56019973999997 78.884476808000016 2128.8259272129790 0.0000000000000000 0.0000000000000000 0.0000000000000000 0.0000000000000000 3.2633818062581934 3.5419823434148139 1.2788497274027688 1.1308780311059303 1741.8211391633290 1709.9255592213040 1.1308623822515282 
-64.945805496788807 -122.42562083666078 59.301061773137334 -64.945805496788807 -122.42562083666077 59.301061773137342 -166.43383218249275 1.1477672329626681e-15 -8.3015227613825110e-17 4.2056488358662166e-16 -142.96313694755210 8.3810487799818034e-08 1.1556511303467687e-08 0.00018740946400797040 0.0050891708595883784 -2.1920164767306171e-20 -2.5259194684214514e-20 8.1161938121733636e-21 0.0043180439007889796 -63.422274742800013 -121.79461816400000 71.240629883439979 1237.7701333319521 0.0000000000000000 0.0000000000000000 0.0000000000000000 0.0000000000000000 3.2635292486483962 3.5422687979651064 1.2789882177310548 1.1308780311059301 1691.1982652814440 1692.0281981520836 1.1309235734911551 
-57.526044399266162 -132.87067196286159 65.193640388159380 -57.526044399266169 -132.87067196286162 65.193640388159366 -149.89108648951085 2.4914308642822823e-15 4.9242916084223765e-16 -1.6006899852828967e-15 -161.39483556924012 7.5569638019468144e-08 1.4489067945433476e-08 0.00017969004425921753 0.0047497393448287717 -3.1393297382932112e-20 5.1538355642844008e-21 4.1546972368267277e-20 0.0057137458565005182 -56.152318124399997 -132.07954718800002 76.641416164000006 2090.5778096190215 0.0000000000000000 0.0000000000000000 0.0000000000000000 0.0000000000000000 3.2631954487262957 3.5416058637884165 1.2786597004405480 1.1308780311059297 1684.1514203516440 1686.9382468877081 1.1307784799175524 
-125.64694847314962 -110.84081146658534 78.903902830269075 -125.64694847314965 -110.84081146658534 78.903902830269075 -231.73808560249034 -1.8558342088808775e-16 5.1537126200618215e-16 -2.7497102442350438e-15 -240.94809492662199 1.5122895882790921e-07 8.3039495279990660e-09 0.00016172927063351494 0.0056706381624387955 -3.9460510723775148e-21 -1.4906920530879632e-20 1.6665149973179762e-20 0.0057193934270774269 -122.89786571200003 -110.38740333199999 89.207425400000020 2092.2379289329847 0.0000000000000000 0.0000000000000000 0.0000000000000000 0.0000000000000000 3.2634679367389987 3.5421506464287829 1.2789316263563908 1.1308780311059288 1843.5041085046564 1845.9820761433341 1.1308985991519138 
-125.51625974447941 -129.23957531605788 83.567653198001366 -125.51625974447940 -129.23957531605788 83.567653198001366 -218.15886445114052 -2.6111906213612337e-16 3.0444281638408447e-16 -2.5896506916535945e-15 -233.98520367520817 1.5108381359874024e-07 1.3469597437421045e-08 0.00015561964546506599 0.0054923061651131503 -1.4992153696360016e-21 -1.3977339956294119e-20 8.2959139052364734e-21 0.0051867377819731619 -122.76981557999994 -128.50411506799998 93.481940963999989 2295.0048277193882 0.0000000000000000 0.0000000000000000 0.0000000000000000 0.0000000000000000 3.2634963477410519 3.5421982075273473 1.2789504900585498 1.1308780311059294 1813.1697677926072 1822.5614601933257 1.1309068895356660 
-89.350199005299032 -120.14927700705738 99.420503209319335 -89.350199005299103 -120.14927700705734 99.420503209319278 -183.58718490003784 -9.6134145354644440e-16 1.5210194622146277e-15 -2.5750592796242168e-15 -1.1366040059974317e-29 1.1091553067665849e-07 1.0917403869825648e-08 0.00013485203056617934 0.0050831829463915791 2.4753922063216047e-20 -3.2213900791021373e-20 1.7795208693978642e-20 1.2086607959250156e-30 -87.333945182495114 -119.55317056945796 108.01171823852533 1853.2119812635015 0.0000000000000000 0.0000000000000000 0.0000000000000000 0.0000000000000000 3.2632871415356806 3.5418081267370947 1.2787706033288064 1.1308780311059297 1752.0555609349617 1722.6922097993106 1.1308274527845616 
-124.62526846222461 -119.53599622238109 98.357745034551471 -124.62526846222462 -119.53599622238109 98.357745034551485 -195.75561198160958 -1.1986673539944912e-16 9.0593682958674167e-16 -1.3436252719808173e-15 -192.15918571384287 1.5009422385525717e-07 1.0745208056661683e-08 0.00013624426934910616 0.0052204552692824311 -3.7897425387006512e-22 -2.1236000601997010e-20 1.3721926803382077e-20 0.0052456985819958881 -121.89681335200000 -118.94929134799999 107.03765745040002 1571.7251237143605 0.0000000000000000 0.0000000000000000 0.0000000000000000 0.0000000000000000 3.2634029290299611 3.5419913306507524 1.2788364762585402 1.1308780311059297 1767.8155454025614 1776.8734630304118 1.1308565205858467 
-45.302436194089623 -164.90655585752916 116.48265448771562 -45.302436194089630 -164.90655585752924 116.48265448771559 -109.89675425879713 3.3170121378530127e-15 -3.7266430823150145e-15 1.3101845119596444e-15 0.0000000000000000 6.1993342043154000e-08 2.3483486488729000e-08 0.00011250020192932197 0.0039888794142008853 -8.1669595236585488e-20 9.0498326517914347e-20 -8.0522514774937282e-21 0.0000000000000000 -44.175503749389662 -163.62432261291502 123.64986896362305 1288.7765825848380 0.0000000000000000 0.0000000000000000 0.0000000000000000 0.0000000000000000 3.2629595531712408 3.5410570677798678 1.2783439810042989 1.1310973969616875 1599.6828312492189 1627.0732867217584 1.1306390616887403 
-16.013825191732280 -144.83937280567733 130.02610473704493 -16.013825191732280 -144.83937280567736 130.02610473704496 -110.22850241003169 7.6672463078582805e-16 -2.3700095309782417e-15 9.5586312295371014e-16 -108.76876950599893 2.9463585321520821e-08 1.7849408395775868e-08 9.4757956272673027e-05 0.0040143428480115947 -1.2737082636842518e-20 5.7252113111057048e-20 -1.3184993912355563e-20 0.0039812906091922706 -15.478227839600008 -143.86476845600004 136.06298808800005 1207.7015194609139 0.0000000000000000 0.0000000000000000 0.0000000000000000 0.0000000000000000 3.2621454676929678 3.5393737546530577 1.2774741510678260 1.1308042431844099 1615.9534254434866 1614.1543816488495 1.1302542057676455 
-45.302436194089623 -164.90655585752916 133.54480576611186 -45.302436194089594 -164.90655585752930 133.54480576611184 -140.66872448766287 3.5648339855507657e-16 -1.8002929597092903e-15 1.3401948343498499e-15 0.0000000000000000 6.1993342043153987e-08 2.3483486488729003e-08 9.0148373292464612e-05 0.0044631166273216196 -8.2316020922134271e-21 5.0621987427486764e-20 -2.2019192665122277e-20 0.0000000000000000 -44.175503749389669 -163.62432261291511 139.28801968872074 2260.0113226803110 0.0000000000000000 0.0000000000000000 0.0000000000000000 0.0000000000000000 3.2631667452368696 3.5415215081765616 1.2786029911813799 1.1308577883265485 1677.2686914876704 1672.4222949272137 1.1307533246917805 
-6.2197285342749922 -162.70724725567365 123.87515683010716 -6.2197285342749922 -162.70724725567365 123.87515683010719 -162.96273786230577 2.1883459603587456e-15 -1.9820248466335031e-15 9.1732410798840167e-16 -173.61372622092964 1.8585649769198298e-08 2.2866008864141918e-08 0.00010281584601656846 0.0046665058367631688 -4.5135858682477024e-20 5.0918756349383361e-20 -1.2947264349254738e-20 0.0046179777469447948 -5.8818733370400009 -161.45872929999999 130.42539591680000 1840.5999298976626 0.0000000000000000 0.0000000000000000 0.0000000000000000 0.0000000000000000 3.2635952926023468 3.5424196988962340 1.2790737323222561 1.1308780311059299 1718.7643083964902 1714.9268516676054 1.1309614114053643 
-10.198861638642750 -107.51133702483511 181.22527689526709 -10.198861638642752 -107.51133702483513 181.22527689526711 -181.12773651464173 -5.2559754213212305e-16 4.0256114165191366e-16 9.7664620596020968e-16 -183.92091393572809 2.3005122778974041e-08 7.3691643898143866e-09 2.7685809062205639e-05 0.0049039613065919880 2.2848515437841954e-21 -1.2291440088095875e-20 -6.0400402773884133e-21 0.0049983220908219163 -9.7806680107999995 -107.10896956400003 182.98909712000000 1021.2952016557671 0.0000000000000000 0.0000000000000000 0.0000000000000000 0.0000000000000000 3.2634251473909717 3.5420603817522585 1.2788840324958561 1.1308780311059283 1746.7505468204804 1746.0698610643065 1.1308775457116786 
-18.144379832696494 -109.06339490109163 192.57755314044920 -18.144379832696497 -109.06339490109164 192.57755314044923 -190.84723343049285 -8.2953813963661853e-16 4.5337916896432792e-16 4.8341591628307597e-16 -196.13560277910173 3.1829910124292482e-08 7.8049249285783162e-09 1.2814054073828629e-05 0.0049549038905465229 5.7145431823138651e-21 -1.5102057533867519e-20 -4.7741300266219074e-21 0.0051031397083139444 -17.565766725200003 -108.63723447200002 193.39391677600000 1230.2822850381203 0.0000000000000000 0.0000000000000000 0.0000000000000000 0.0000000000000000 3.2634156192139017 3.5420400053036580 1.2788731454784383 1.1308780311059290 1768.6470070627061 1768.0444736390200 1.1308727295468710 
-45.302436194089623 -120.14927700705738 167.66910832290444 -45.302436194089651 -120.14927700705736 167.66910832290466 -184.65252138363985 7.9135619448616206e-17 1.1910945862214783e-15 1.4939689191428672e-15 0.0000000000000000 6.1993342043154000e-08 1.0917403869825648e-08 4.5444716011644466e-05 0.0049280506672162733 5.0761793111341896e-22 -2.5914319501538843e-20 -2.1634927084580928e-21 0.0000000000000000 -44.175503749389591 -119.55317056945772 170.56432113891603 1872.3464537223574 0.0000000000000000 0.0000000000000000 0.0000000000000000 0.0000000000000000 3.2634812814839278 3.5421757994026017 1.2789433825653826 1.1308780311059299 1753.1065486355033 1754.5525538084009 1.1309038219381384 
-9.7407849791990007 -125.06862830666952 187.63583041515659 -9.7407849791990007 -125.06862830666954 187.63583041515656 -182.98042038675393 -3.9116537858738022e-16 -4.4747371520811598e-16 7.6783601963035161e-16 -182.71998254755664 2.2496354529222277e-08 1.2298556395506921e-08 1.9287829719161209e-05 0.0048993319259254594 -3.8456926384284344e-21 8.7037385905228150e-21 -6.2718903668046374e-21 0.0049409959857397616 -9.3318398883999993 -124.39710846400000 188.86462832000004 1016.3527334425750 0.0000000000000000 0.0000000000000000 0.0000000000000000 0.0000000000000000 3.2634114290158562 3.5420313458225019 1.2788686681967147 1.1308780311059283 1751.0294742878582 1751.0920889460865 1.1308707480914395 
-45.302436194089623 -164.90655585752916 99.420503209319335 -45.302436194089623 -164.90655585752927 99.420503209319293 -138.42961646198080 1.0638134316287931e-15 -5.1806186911761581e-15 -4.2158282144763968e-15 6.1084112480409829e-29 6.1993342043153987e-08 2.3483486488729000e-08 0.00013485203056617934 0.0043397452855089896 -2.4369921361125719e-20 1.1955438665148595e-19 2.7994027832093569e-20 -6.4306135463382643e-30 -44.175503749389662 -163.62432261291499 108.01171823852535 1450.3671205666894 0.0000000000000000 0.0000000000000000 0.0000000000000000 0.0000000000000000 3.2646291802232001 3.5447028499779525 1.2803286038745261 1.1313137715057500 1672.5137842695399 1689.5783145220191 1.1315159521865192 
-62.630438417484726 -162.19551906454626 75.407447391056962 -62.630438417484719 -162.19551906454626 75.407447391056948 -191.63463558856293 -1.7250056575277588e-15 -4.4981861296251954e-15 -1.1546656915175963e-15 -197.91696457259320 8.1238898635982437e-08 2.2722327353008609e-08 0.00016630971137487904 0.0049644161199954972 3.3765473814297876e-20 9.0191529055560769e-20 3.9767517664563269e-20 0.0054449988157951280 -61.153654769600031 -160.95484587600001 86.002782780800032 1645.6757988676138 0.0000000000000000 0.0000000000000000 0.0000000000000000 0.0000000000000000 3.2624499577514627 3.5401197139382456 1.2779198431029120 1.1306683801264632 1773.2929791156935 1773.4596231888527 1.1304511621041031 
-45.360809505544786 -169.35199205935336 72.432790657400304 -45.360809505544800 -169.35199205935336 72.432790657400318 -212.96876874690548 1.6976487575300307e-16 -4.6900797135114612e-15 -7.7865612262915292e-16 -185.16469728328988 6.2058169630896387e-08 2.4731570347213960e-08 0.00017020658326671875 0.0051786960161860811 9.2892279583330774e-22 9.7032739826847218e-20 2.8427412339492859e-20 0.0052670065080742167 -44.232698507600013 -168.00161050399998 83.276389748800028 1737.4139093181343 0.0000000000000000 0.0000000000000000 0.0000000000000000 0.0000000000000000 3.2633985576920921 3.5419748211392434 1.2788241199188497 1.1308780311059297 1801.5724336191122 1799.1088384382895 1.1308510815201680 
-45.302436194089623 -187.28519528276502 99.420503209319335 -45.302436194089587 -187.28519528276502 99.420503209319236 -220.79866730563322 -1.5014390226778247e-16 -2.3494397345717789e-15 -2.0390070583401697e-15 -4.4748460149994036e-30 6.1993342043153987e-08 2.9766513476303658e-08 0.00013485203056617931 0.0052677566154716460 8.0860876819311494e-21 5.6729146664651191e-20 3.5079403407768461e-21 4.7402314508475488e-31 -44.175503749389676 -185.65989863464350 108.01171823852533 1616.4576808433910 0.0000000000000000 0.0000000000000000 0.0000000000000000 0.0000000000000000 3.2631353896976081 3.5414494301720270 1.2785617272452234 1.1308199334678668 1819.5552366253391 1819.3401244539939 1.1307350079908594 
-89.350199005299032 -142.52791643229327 133.54480576611186 -89.350199005299103 -142.52791643229324 133.54480576611189 -174.10332568618256 -7.9367396955473477e-16 -4.4473522850242555e-16 6.4018631068849613e-16 0.0000000000000000 1.1091553067665850e-07 1.7200431079444908e-08 9.0148373292464612e-05 0.0048864137904246051 1.9779471741941961e-20 9.8018005028881198e-21 -5.5351529718415301e-21 0.0000000000000000 -87.333945182495100 -141.58874659118649 139.28801968872074 1877.7986991733408 0.0000000000000000 0.0000000000000000 0.0000000000000000 0.0000000000000000 3.2628374251125947 3.5407988206795702 1.2782083134941948 1.1305883031752706 1734.9888860026492 1734.8462951194592 1.1305784516938329 
-67.326317599694335 -164.90655585752916 133.54480576611186 -67.326317599694406 -164.90655585752933 133.54480576611181 -158.65518117630097 -1.7768677186454351e-15 -6.5962126738742612e-16 1.1020562215724354e-15 -6.7081257704758780e-31 8.6454433084748317e-08 2.3483486488729000e-08 9.0148373292464612e-05 0.0046844332131468786 4.3385140899883929e-20 2.0750130093073116e-20 -1.4179074231357367e-20 5.3471391195174212e-32 -65.754724465942374 -163.62432261291517 139.28801968872077 2018.1238718776010 0.0000000000000000 0.0000000000000000 0.0000000000000000 0.0000000000000000 3.2627563440692002 3.5406457576759012 1.2781363953598162 1.1307597983185520 1706.3275903672165 1704.8493171091545 1.1305470056920650 
-89.350199005299032 -164.90655585752916 116.48265448771562 -89.350199005299103 -164.90655585752930 116.48265448771556 -184.38255958854646 -1.2576176077269990e-15 -9.5121527749751998e-16 -7.3342135625508425e-16 0.0000000000000000 1.1091553067665848e-07 2.3483486488729003e-08 0.00011250020192932196 0.0049765475736645304 3.0136217780266396e-20 2.1494182260800903e-20 5.6297182505060517e-21 0.0000000000000000 -87.333945182495114 -163.62432261291505 123.64986896362312 1549.0027140339625 0.0000000000000000 0.0000000000000000 0.0000000000000000 0.0000000000000000 3.2637321262289345 3.5426975759223760 1.2792146210211859 1.1309118727075778 1755.9921188864321 1745.0901904876687 1.1310236080216169 
-89.350199005299032 -142.52791643229327 116.48265448771562 -89.350199005299103 -142.52791643229321 116.48265448771556 -155.49748794519581 -3.2576493656756062e-15 -1.4133151879419701e-15 2.6194365748144368e-16 0.0000000000000000 1.1091553067665848e-07 1.7200431079444908e-08 0.00011250020192932196 0.0046618445571030174 7.8293821717205130e-20 2.9601900935387920e-20 4.3962824094398983e-21 0.0000000000000000 -87.333945182495086 -141.58874659118649 123.64986896362313 1389.1126189879024 0.0000000000000000 0.0000000000000000 0.0000000000000000 0.0000000000000000 3.2627573135074370 3.5405016627489689 1.2779869946024724 1.1308063979400493 1695.7201956629306 1708.5805800988460 1.1304814274615014 
-46.345628352439270 -110.78628305277668 34.868415207504349 -46.345628352439277 -110.78628305277668 34.868415207504356 -270.35753822344020 8.5024331817610259e-16 1.4707346140919993e-15 -1.9977692976207938e-15 -270.94017729742660 6.3151970347563591e-08 8.2886455476938198e-09 0.00021941681878701047 0.0062179037559901701 8.8969698342203342e-21 -1.1148528686207934e-20 3.1679499975823691e-20 0.0060043297917049031 -45.197633928000002 -110.33371083599998 48.847122559999995 1069.0094105005942 0.0000000000000000 0.0000000000000000 0.0000000000000000 0.0000000000000000 3.2634320898280040 3.5420743453684689 1.2788910470082977 1.1308780311059299 1902.7242020531996 1902.6937942373613 1.1308806485055707 
-58.517374228048446 -99.104752478767210 32.008654199519377 -58.517374228048467 -99.104752478767239 32.008654199519363 -300.50812953443875 -1.0280844150573298e-15 1.6194771121621650e-15 -2.6707265960394636e-15 -302.81065231013253 7.6670673282430712e-08 5.0089197234370886e-09 0.00022316317451043230 0.0065950800161500072 3.7114386757813563e-20 -8.4640200718255022e-21 2.9646906392727987e-20 0.0069988513261585641 -57.123633070400032 -98.831257531200038 46.226036100800002 1475.5774262919704 0.0000000000000000 0.0000000000000000 0.0000000000000000 0.0000000000000000 3.2634272878210879 3.5420641304895764 1.2788856195029543 1.1308780311059297 1958.5193592501259 1958.4910210732173 1.1308782510768440 
-61.595530042781895 -105.96566621802819 44.048349652589920 -61.595530042781895 -105.96566621802820 44.048349652589913 -252.63464071658984 9.3470483223600790e-17 5.0388688450468631e-15 -4.9851972979901657e-15 -176.51216162106041 8.0089466530930409e-08 6.9352015241719292e-09 0.00020739088382271120 0.0060541685469725874 3.6923472256237911e-20 -4.4428795572258814e-20 9.6647431769284487e-20 0.0076414873665972974 -60.139641125599979 -105.58699381199996 57.260903223199996 1724.6135661994952 0.0000000000000000 0.0000000000000000 0.0000000000000000 0.0000000000000000 3.2634153808702537 3.5420394375021846 1.2788728195273509 1.1308780311059299 1864.4089222152868 1864.6649441199334 1.1308725972735589 
-20.022554180052872 -88.222730472817943 44.526422859306763 -20.022554180052875 -88.222730472817958 44.526422859306763 -258.19328844253539 -7.3282075237993705e-16 5.5127507688964496e-16 -3.8390478185129620e-15 -262.04889963148031 3.3915927816208224e-08 1.9536787743135164e-09 0.00020676459641677525 0.0060886005632117884 6.0435754689210865e-21 -3.6568732420372207e-20 4.0845486598495166e-21 0.0060956881249198689 -19.406020858399991 -88.116056368799974 57.699076624800000 1439.6451283969650 0.0000000000000000 0.0000000000000000 0.0000000000000000 0.0000000000000000 3.2634213617493280 3.5420516654422536 1.2788790675379835 1.1308780311059297 1885.7075528821149 1886.0437358021143 1.1308753583124764 
-60.204337736996543 -180.10352718974090 67.499884260247867 -60.204337736996543 -180.10352718974084 67.499884260247867 -258.99822529875178 -5.9089606637621756e-16 -8.6979376753668557e-16 -1.2409225646612452e-15 -268.82101295971330 7.8544318743434260e-08 2.7750172604257273e-08 0.00017666880930633511 0.0056853771131798545 1.4416347090653567e-20 3.8280618556001316e-21 3.3682223815969919e-20 0.0062599451395012745 -58.776536899199989 -178.58832514800000 78.755181813599989 1584.4809985467919 0.0000000000000000 0.0000000000000000 0.0000000000000000 0.0000000000000000 3.2638086720007067 3.5428782459592103 1.2793198675025175 1.1308780311059303 1889.2572732625019 1889.7576467364231 1.1310703528606216 
-76.214420017286102 -186.55694589811645 60.375905181506738 -76.214420017286102 -186.55694589811648 60.375905181506717 -270.77303034062322 -3.5760339476633029e-16 -7.6274109115834121e-16 -3.5465769952921264e-16 -272.19456371227221 9.6326119886080987e-08 2.9562046810482915e-08 0.00018600139328839302 0.0058569300554383872 3.3891939096147767e-21 3.2875516096992962e-21 1.0570818436775643e-20 0.0057010062753156164 -74.463376691600018 -184.94281327599995 72.225767276240006 1182.3928641350060 0.0000000000000000 0.0000000000000000 0.0000000000000000 0.0000000000000000 3.2633773718561989 3.5419317314137664 1.2788020115985821 1.1308780311059305 1909.9779996179493 1910.0242938394806 1.1308412297628931 
-71.390420402065843 -213.61743388582036 76.050610521414129 -71.390420402065843 -213.61743388582042 76.050610521414129 -263.75181249905648 1.0285998734988725e-16 1.6660001920538594e-16 -1.1936517387138584e-15 -263.50943350889236 9.0968283489312185e-08 3.7159580967838224e-08 0.00016546715220400188 0.0057397785513291248 -4.2566569238610669e-22 1.4605143388557992e-21 7.8591251485037568e-21 0.0057656599309837764 -69.736773305200003 -211.58846536000007 86.592267764799999 1391.6778601551057 0.0000000000000000 0.0000000000000000 0.0000000000000000 0.0000000000000000 3.2635075524477162 3.5422616680805872 1.2790041401454229 1.1308780311059305 1893.0356789760042 1892.3820408739607 1.1309307228162790 
-88.819380733891364 -209.23571358459463 80.104834994265502 -88.819380733891393 -209.23571358459461 80.104834994265502 -255.96298503848783 7.4041310628361678e-16 -3.5303821120298398e-16 -1.3793820121702561e-15 -272.21787933964418 1.1032597205251628e-07 3.5929342834251088e-08 0.00016015602060903689 0.0056897624969948404 -9.6590073776928117e-21 7.0942433465348522e-21 -8.7427204370807733e-21 0.0057578055938923203 -86.813844096400004 -207.27391660800001 90.308128229600001 1955.0875990986240 0.0000000000000000 0.0000000000000000 0.0000000000000000 0.0000000000000000 3.2636995903284860 3.5426456616523772 1.2791959594840987 1.1308780311059297 1889.2886029478257 1890.4039237006075 1.1310155461308915 
-76.122806561761010 -214.62983205828172 91.396160103599755 -76.122806561761010 -214.62983205828172 91.396160103599755 -246.40120539602563 -6.2226153899511074e-17 7.0173194041043113e-17 -4.1694126195718392e-16 -251.82232224124513 9.6224362838848165e-08 3.7443820710691966e-08 0.00014536411308441188 0.0055606537714328894 9.7218216629662621e-22 -8.4974476653833930e-22 5.1883789228639238e-21 0.0056253814004865307 -74.373612905599998 -212.58534351999998 100.65708370800000 988.41240310934302 0.0000000000000000 0.0000000000000000 0.0000000000000000 0.0000000000000000 3.2636983442160896 3.5426771857102879 1.2792299254574260 1.1308780311059292 1871.1587005489769 1869.2253476528167 1.1310306258053739 
-67.326317599694335 -187.28519528276502 99.420503209319335 -67.326317599694406 -187.28519528276502 99.420503209319236 -223.31638806335764 2.4801310156405144e-16 -1.7685711500582620e-15 -2.1998388146524138e-15 -2.8766675746899310e-29 8.6454433084748330e-08 2.9766513476303658e-08 0.00013485203056617931 0.0053369479872550848 5.3114398083919722e-22 4.2386160105219817e-20 4.5464516516284920e-21 3.0214315610259551e-30 -65.754724465942374 -185.65989863464350 108.01171823852535 1808.0980320372519 0.0000000000000000 0.0000000000000000 0.0000000000000000 0.0000000000000000 3.2623925935387739 3.5397546832329558 1.2776031474504084 1.1305915563157451 1820.0399032429127 1818.9342148362571 1.1303107637103675 
-85.397812842758483 -210.33934198785133 100.52593669172299 -85.397812842758498 -210.33934198785136 100.52593669172300 -231.97159839861641 3.7189270989743168e-16 -3.5340870919709081e-16 -1.6893249113702702e-15 -227.67861075961579 1.0652575901937134e-07 3.6239212741762117e-08 0.00013340388610671994 0.0054357674429499981 -7.0290625089433279e-21 3.6205515783269405e-21 1.5785990591735517e-20 0.0054324586119578683 -83.461357431600007 -208.36062644399999 109.02489266960001 1287.0831768928649 0.0000000000000000 0.0000000000000000 0.0000000000000000 0.0000000000000000 3.2637948341937633 3.5428689551011456 1.2793250523980506 1.1308780311059290 1834.3304351585755 1837.5960218619873 1.1310726174488954 
-42.631854349090858 -130.80574194274044 53.315536673458041 -42.631854349090865 -130.80574194274047 53.315536673458041 -204.32051591263419 1.2813851575800151e-15 8.3305672611766569e-16 -2.4648583733742861e-15 -208.47021549947053 5.9027225801644441e-08 1.3909314811044739e-08 0.00019525064588421517 0.0053978791689793092 -7.5764002773852240e-21 4.1123339318652755e-21 5.0146030362675671e-20 0.0058994559587203250 -41.558840772800004 -130.04627243999997 65.754654395919971 2180.9238908936368 0.0000000000000000 0.0000000000000000 0.0000000000000000 0.0000000000000000 3.2635003833412664 3.5422188985659271 1.2789674839189240 1.1308780311059294 1796.9680091227622 1796.0019846344974 1.1309144054319751 
-23.474322144235970 -135.27306804046989 42.570062928141120 -23.474322144235970 -135.27306804046989 42.570062928141120 -238.56576500024019 8.0163869518863586e-16 3.9841865234951736e-16 -9.5905165044048649e-16 -239.92758224758694 3.7749677744836063e-08 1.5163567956832935e-08 0.00020932747499813328 0.0057758740200121120 -3.9386280256064343e-21 4.1732160287309112e-21 9.9446743043260906e-21 0.0057226901143681164 -22.788097858800000 -134.44511465599999 55.905993737599999 935.86986824075086 0.0000000000000000 0.0000000000000000 0.0000000000000000 0.0000000000000000 3.2633860218258950 3.5419761539987489 1.2788387774123990 1.1308780311059290 1847.0322244343608 1846.8760058017012 1.1308575676326607 
-11.469619543140283 -103.95021215379286 49.337520744559882 -11.469619543140283 -103.95021215379285 49.337520744559896 -235.30132478187892 -6.4341451781925222e-16 -3.3883741493027310e-16 -3.3947295212386449e-15 -230.81734167950378 2.4416505761681861e-08 6.3693421648025614e-09 0.00020046194244827123 0.0057538113687621364 1.8295827583014564e-21 -1.9705670267532377e-20 6.3047222144011611e-21 0.0057075359758232266 -11.025769398400001 -103.60243655599999 62.108642139439993 1284.9349949311236 0.0000000000000000 0.0000000000000000 0.0000000000000000 0.0000000000000000 3.2634078739441659 3.5420232856202052 1.2788641471681974 1.1308780311059292 1850.4068489448468 1851.0374264280358 1.1308687698258357 
-29.808362939239714 -141.69064289641173 58.025195907690367 -29.808362939239714 -141.69064289641173 58.025195907690367 -203.09507525403629 9.5212985162676074e-16 1.2348862729146599e-15 -2.7222972321312298e-15 -200.46977640885382 4.4784655123253352e-08 1.6965352900299994e-08 0.00018908087898950043 0.0053211989080744855 -9.3736513433270131e-21 5.5850590442146740e-21 4.5605474586194368e-20 0.0059397776282048825 -28.994254794799993 -140.76430841599998 70.071247290159988 2176.9829965296321 0.0000000000000000 0.0000000000000000 0.0000000000000000 0.0000000000000000 3.2635417084631260 3.5423094938061968 1.2790169752380001 1.1308780311059294 1784.2956179329519 1784.2915960325734 1.1309362494307444 
-105.75383480588357 -195.80990294271368 84.176982851448017 -105.75383480588357 -195.80990294271371 84.176982851448003 -242.64332326215325 -2.1239739682181639e-16 -2.7814885129059861e-17 -1.2146602986952071e-15 -253.72592087020831 1.2913443350748291e-07 3.2159919838292688e-08 0.00015482140895528573 0.0055949538057902086 2.6153668002492903e-21 -6.0433274309581754e-21 -4.2799901138996543e-22 0.0055522885268693570 -103.40639267600000 -194.05392295999994 94.040416199999996 2662.2783756828549 0.0000000000000000 0.0000000000000000 0.0000000000000000 0.0000000000000000 3.2636399523005264 3.5425446529662921 1.2791552308151706 1.1308780311059292 1859.0630519587007 1856.8963142175767 1.1309975594443309 
-84.425321705086731 -163.56301923252738 66.459790122148974 -84.425321705086787 -163.56301923252747 66.459790122148945 -247.76391582277708 -1.5479772482761747e-15 -1.4731425360787200e-15 -2.1287798682521504e-15 -245.50670421924960 1.0544565656744886e-07 2.3106271340722628e-08 0.00017803135764893341 0.0056808010924126375 1.8301885536025169e-20 1.6620188315185840e-20 6.0544528198011026e-20 0.0067733871794263016 -82.508500824799995 -162.30138233600007 77.801893530400037 2229.3857910936085 0.0000000000000000 0.0000000000000000 0.0000000000000000 0.0000000000000000 3.2638115168962547 3.5428877584568554 1.2793265357903207 1.1308780311059297 1866.9896404236767 1864.2273030809963 1.1310733371440447 
-28.784532297645406 -125.74393686336640 120.74819230731468 -28.784532297645427 -125.74393686336636 120.74819230731465 -86.097716814716435 -1.0731803611608226e-15 2.4000023593555917e-16 3.3696933572824885e-15 -9.7966980717736878e-30 4.3647526953849436e-08 1.2488154288448072e-08 0.00010691224477099581 0.0036768344146339803 3.4103166643103423e-20 -6.2640133927592628e-21 -3.3782685644255485e-20 9.0541379593803395e-31 -27.991095225219734 -125.06206457489009 127.55940664489751 1124.7619503421174 0.0000000000000000 0.0000000000000000 0.0000000000000000 0.0000000000000000 3.2630941936310482 3.5413156111315369 1.2784676963625323 1.1309936928367035 1565.5263339123926 1566.1694829590174 1.1306932950271675 