# For a description of the Tecplot format see the Tecplot User's guide.
#
Variables=x,y,z,s_u,s_v,s_w,s_p,mono_f_vel_u,mono_f_vel_v,mono_f_vel_w,const,u_nu,v_nu,w_nu,p_nu,x_nu,y_nu,z_nu,const,u_ref,v_ref,w_ref,vol_ref,x_ref,y_ref,z_ref,const,I1,I2,I3,J,p1,p2,p3
Zone f=fepoint, n=356, e=1130, et=brick, c=black
-67.7197 -97.8336 79.6313 -67.719696550602080 -97.833585351292328 79.631321901838888 -165.13418043674392 -2.1524121413875202e-15 1.1996439151202709e-15 3.3415949606205379e-15 6.0677075058242511e-30 1.5261995400805972e-07 8.1675008978265851e-09 0.00028398975877763633 0.0088839196854092802 6.6710834149922032e-20 -3.9080908053763558e-20 -8.6526047332609687e-21 -6.3197655869307864e-31 -65.754724465942431 -97.517594547729473 92.373562431030237 2074.8615187338191 0.0000000000000000 0.0000000000000000 0.0000000000000000 0.0000000000000000 3.3364418414196662 3.6973406577780885 1.3614008819555179 1.1668551784978458 2063.9395879316939 2078.2005628503180 1.1667908474848578 
-77.969517908988010 -131.51858875407765 64.579474606439504 -77.969517908988024 -131.51858875407765 64.579474606439490 -165.03730578625871 -4.4219313196182128e-15 -7.4200692470737418e-16 4.5715427589039101e-16 -145.48314115226918 1.7261550366853837e-07 2.4771727336059257e-08 0.00031881945057321559 0.0088801500713132156 1.3010992294415375e-19 5.6443358708112254e-21 -7.2720700434809521e-21 0.0083105419854691536 -75.747104543999981 -130.56019973999997 78.884476808000016 2128.8259272129790 0.0000000000000000 0.0000000000000000 0.0000000000000000 0.0000000000000000 3.3365253247917575 3.6975310633498837 1.3615088117368817 1.1668551784978460 2074.9382760204030 2071.7755497740573 1.1668370977695763 
-65.327154153008166 -122.58259101731254 56.050059057215691 -65.327154153008166 -122.58259101731254 56.050059057215677 -146.21096947463457 1.6134436246967392e-15 -3.9224184912134602e-16 7.5852838711429141e-16 -115.75146772130799 1.4795254843491532e-07 2.0366944575300749e-08 0.00033855635787460869 0.0087310455023884518 -4.3352104879250014e-20 -3.9382343493169313e-20 5.6375953225645033e-21 0.0073012371212519264 -63.422274742800013 -121.79461816400000 71.240629883439979 1237.7701333319521 0.0000000000000000 0.0000000000000000 0.0000000000000000 0.0000000000000000 3.3367048738625331 3.6978775311143943 1.3616747365653994 1.1668551784978451 2010.3588133737280 2039.2271335149965 1.1669081448208380 
-57.869896118413862 -133.06747461395727 62.076546889073313 -57.869896118413862 -133.06747461395727 62.076546889073327 -129.57180006041725 3.3046644084209663e-15 4.0747014539419070e-16 -1.9415711632794813e-15 -144.51248540602609 1.3340478988155266e-07 2.5535224601469508e-08 0.00032461117827864433 0.0081423071083224826 -6.3110690547013459e-20 1.1112725264777800e-20 7.3418977923118286e-20 0.0098271086480714014 -56.152318124399997 -132.07954718800002 76.641416164000006 2090.5778096190215 0.0000000000000000 0.0000000000000000 0.0000000000000000 0.0000000000000000 3.3363032074935366 3.6970817276395511 1.3612817961553410 1.1668551784978460 2009.0774541551839 2019.4853030221855 1.1667399705372694 
-126.33505996289506 -110.95360267948897 76.098375900961571 -126.33505996289503 -110.95360267948897 76.098375900961585 -228.61764866187696 -2.2261244039081879e-16 6.5158819593797379e-16 -3.3826351827880713e-15 -240.13659610221390 2.6696788424374057e-07 1.4634704559313146e-08 0.00029216492943362482 0.0098399344613138082 -6.8954056520488170e-21 -2.7201287413696909e-20 2.8960405888533154e-20 0.0099273656114550867 -122.89786571200003 -110.38740333199999 89.207425400000020 2092.2379289329847 0.0000000000000000 0.0000000000000000 0.0000000000000000 0.0000000000000000 3.3366310133266035 3.6977367222953097 1.3616082673750449 1.1668551784978463 2202.3728394919167 2202.3038111924207 1.1668797247946217 
-126.20371077804971 -129.42253068693299 80.868110286907481 -126.20371077804973 -129.42253068693299 80.868110286907481 -212.36600067935484 -3.1871259480250111e-16 3.2454463206507746e-16 -3.1756871701606679e-15 -232.31884453002661 2.6671165276326292e-07 2.3738522259009184e-08 0.00028112785371092741 0.0095234349368368190 -2.3984032502509129e-21 -2.3699921244201258e-20 1.5154236440267510e-20 0.0089991761660814223 -122.76981557999994 -128.50411506799998 93.481940963999989 2295.0048277193882 0.0000000000000000 0.0000000000000000 0.0000000000000000 0.0000000000000000 3.3366656926074283 3.6977928021531956 1.3616291615250591 1.1668551784978467 2166.0129610697873 2167.7050667716353 1.1668886103277953 
-89.854879126727724 -120.29756629211396 97.081217304252576 -89.854879126727653 -120.29756629211396 97.081217304252590 -170.15846127617263 -1.1768977695703316e-15 1.9420983517583320e-15 -3.1594315425864953e-15 -1.9218481317848843e-29 1.9580167576194185e-07 1.9240584236968061e-08 0.00024361102872916260 0.0087888314054023475 4.4396723316898876e-20 -5.8397011694307274e-20 3.1870056687892938e-20 1.5894664481146237e-30 -87.333945182495114 -119.55317056945796 108.01171823852533 1853.2119812635015 0.0000000000000000 0.0000000000000000 0.0000000000000000 0.0000000000000000 3.3364119940302475 3.6973250063842764 1.3614167814607567 1.1668551784978460 2090.6897689830880 2091.2826185807512 1.1667977307772088 
-125.30821673032807 -119.68194674543120 95.994307883626746 -125.30821673032804 -119.68194674543120 95.994307883626760 -184.45244609939115 -1.4777332266381249e-16 1.1687636254006613e-15 -1.6912520899112698e-15 -179.69780379182151 2.6496471106085551e-07 1.8937140300323566e-08 0.00024612611671770424 0.0090444228752658788 -7.0619450627270651e-22 -3.8471401075569753e-20 2.3978956114504727e-20 0.0090843861622011135 -121.89681335200000 -118.94929134799999 107.03765745040002 1571.7251237143605 0.0000000000000000 0.0000000000000000 0.0000000000000000 0.0000000000000000 3.3365536352282814 3.6975388672646625 1.3614862500604070 1.1668551784978465 2108.7926521765007 2109.7958184991517 1.1668274222363839 
-45.584513974476522 -165.22552817375728 114.53110703545377 -45.584513974476522 -165.22552817375723 114.53110703545374 -86.632936617172874 3.9720668898339523e-15 -4.4080882704352861e-15 1.4030120131108080e-15 0.0000000000000000 1.0943823913756034e-07 4.1386767346551778e-08 0.00020323231181151868 0.0068252918852208010 -1.4243455809720114e-19 1.5845769029159825e-19 -2.1830977380492293e-20 0.0000000000000000 -44.175503749389662 -163.62432261291502 123.64986896362305 1288.7765825848380 0.0000000000000000 0.0000000000000000 0.0000000000000000 0.0000000000000000 3.3360327770717149 3.6964243753071973 1.3608894587240563 1.1671138672260515 1917.5791964494824 1942.7894594310014 1.1665720595116238 
-16.147888340753422 -145.08181840450140 128.38233303706846 -16.147888340753418 -145.08181840450146 128.38233303706849 -85.595740207239331 8.8189761968225879e-16 -2.8922638006417244e-15 9.4016761719247430e-16 -80.334595433455576 5.2012726514671925e-08 3.1457417559721534e-08 0.00017118083513167903 0.0068918601521643745 -2.3863067698459357e-20 9.9978274023845483e-20 -2.5037024210622911e-20 0.0069001118157002014 -15.478227839600008 -143.86476845600004 136.06298808800005 1207.7015194609139 0.0000000000000000 0.0000000000000000 0.0000000000000000 0.0000000000000000 3.3351481604893767 3.6945813277048938 1.3599301486297437 1.1667874083536973 1933.9661423495572 1931.4660978853715 1.1661606989405322 
-45.584513974476522 -165.22552817375728 131.98099676665493 -45.584513974476522 -165.22552817375717 131.98099676665504 -119.94107324871817 4.9983075592826904e-16 -2.2130087031551540e-15 1.3737233049767418e-15 0.0000000000000000 1.0943823913756032e-07 4.1386767346551778e-08 0.00016285359489387474 0.0077003633788090180 -1.5150672143011587e-20 8.9766708181585608e-20 -4.0838944670110960e-20 0.0000000000000000 -44.175503749389669 -163.62432261291511 139.28801968872074 2260.0113226803110 0.0000000000000000 0.0000000000000000 0.0000000000000000 0.0000000000000000 3.3362875556084082 3.6970112447598789 1.3612249740175340 1.1668466405326217 2003.4311729423785 1999.8364004854000 1.1667155289657600 
-6.3042956656735356 -163.01783245212403 122.09160445500918 -6.3042956656735356 -163.01783245212397 122.09160445500920 -148.99018857737730 2.6112489360089328e-15 -2.4574869127494206e-15 1.0116722299651504e-15 -161.30925963180786 3.2809666539179723e-08 4.0298540504579712e-08 0.00018573746285710513 0.0080641845954412383 -8.2246002629706696e-20 8.9788302174763420e-20 -2.3147562153777000e-20 0.0080330225743961564 -5.8818733370400009 -161.45872929999999 130.42539591680000 1840.5999298976626 0.0000000000000000 0.0000000000000000 0.0000000000000000 0.0000000000000000 3.3367666177926179 3.6980279685073962 1.3617646553259350 1.1668551784978465 2057.6822985923141 2053.9606741592579 1.1669467127319213 
-10.303537948982925 -107.61143120153542 180.74500957839018 -10.303537948982923 -107.61143120153542 180.74500957839018 -163.48641202768223 -6.4082664696592008e-16 5.5805370217598632e-16 1.1313448511979662e-15 -167.06685349400371 4.0611461193940102e-08 1.2987253050766865e-08 5.0014585600166590e-05 0.0086389352606567361 6.6440631256207686e-21 -2.1999450257969981e-20 -1.5115399512235593e-20 0.0087969657989963156 -9.7806680107999995 -107.10896956400003 182.98909712000000 1021.2952016557671 0.0000000000000000 0.0000000000000000 0.0000000000000000 0.0000000000000000 3.3365805684806777 3.6976287269189254 1.3615504884999214 1.1668551784978454 2078.4481697648675 2077.5114476518825 1.1668549509844424 
-18.289210076810043 -109.16940789032202 192.35526700984244 -18.289210076810040 -109.16940789032199 192.35526700984244 -174.83594583763596 -9.9918414794698993e-16 6.1580374248042568e-16 5.5136931661992286e-16 -181.27877663165239 5.6190057162730524e-08 1.3755219185895836e-08 2.3148668084616020e-05 0.0087877741696667476 1.6021828294531534e-20 -2.6946174025838883e-20 -1.2936536878837517e-20 0.0090539575073273239 -17.565766725200003 -108.63723447200002 193.39391677600000 1230.2822850381203 0.0000000000000000 0.0000000000000000 0.0000000000000000 0.0000000000000000 3.3365696051974032 3.6976048111449211 1.3615374615964573 1.1668551784978454 2103.8668935855776 2103.6847357993729 1.1668493659077759 
-45.584513974476522 -120.29756629211396 166.88077622905735 -45.584513974476522 -120.29756629211381 166.88077622905749 -168.39353681741611 7.8386724243064185e-17 1.5319278585380962e-15 1.7557206650068100e-15 0.0000000000000000 1.0943823913756037e-07 1.9240584236968061e-08 8.2096161026612435e-05 0.0086845026067081561 5.8503244490668400e-23 -4.7358365124430828e-20 -1.2004097418050287e-20 0.0000000000000000 -44.175503749389591 -119.55317056945772 170.56432113891603 1872.3464537223574 0.0000000000000000 0.0000000000000000 0.0000000000000000 0.0000000000000000 3.3366423778468515 3.6977565885655634 1.3616166573594441 1.1668551784978449 2087.2445152864934 2090.4331754440759 1.1668833472896076 
-9.8431463266384291 -125.23567766411612 187.30124332715988 -9.8431463266384309 -125.23567766411612 187.30124332715988 -165.31951387273162 -4.5160205102790647e-16 -5.8230903203070316e-16 9.2372714079785101e-16 -164.86826834530731 3.9713321298151534e-08 2.1674710914965090e-08 3.4843583904375919e-05 0.0086575607772284187 -4.2054876092610426e-21 1.7208631081137213e-20 -1.4568162284955332e-20 0.0087305711499420929 -9.3318398883999993 -124.39710846400000 188.86462832000004 1016.3527334425750 0.0000000000000000 0.0000000000000000 0.0000000000000000 0.0000000000000000 3.3365648766059124 3.6975949441277267 1.3615323077227151 1.1668551784978471 2082.6178383738011 2081.6379440850683 1.1668471554265383 
-45.584513974476522 -165.22552817375728 97.081217304252561 -45.584513974476522 -165.22552817375720 97.081217304252561 -121.13606809052342 1.2913261323147697e-15 -6.3407342635111047e-15 -4.9490429436752737e-15 1.0199625976226942e-28 1.0943823913756033e-07 4.1386767346551785e-08 0.00024361102872916263 0.0074505447708113921 -4.4452515049908502e-20 2.1682978463725999e-19 5.5281343006544063e-20 -8.2903860781515421e-30 -44.175503749389662 -163.62432261291499 108.01171823852535 1450.3671205666894 0.0000000000000000 0.0000000000000000 0.0000000000000000 0.0000000000000000 3.3379854598259349 3.7007909461568107 1.3633194245739153 1.1673667992381085 2003.7821878722114 2026.5754758396213 1.1676125404499631 
-63.000085999703273 -162.50415277241106 72.522463293647917 -63.000085999703273 -162.50415277241106 72.522463293647903 -184.79704412421916 -2.0998730856600858e-15 -5.6246758695274018e-15 -1.4800850671013399e-15 -192.10145413094185 1.4341285425878422e-07 4.0045333715710285e-08 0.00030043952401825891 0.0086091297337626410 6.0054260545128667e-20 1.6269049438106929e-19 7.3341181267196924e-20 0.0095207062386736836 -61.153654769600031 -160.95484587600001 86.002782780800032 1645.6757988676138 0.0000000000000000 0.0000000000000000 0.0000000000000000 0.0000000000000000 3.3353312642511175 3.6951390170046725 1.3603124084753373 1.1665900932280027 2125.2777490615049 2124.2090603621250 1.1663242791630319 
-45.643182284700174 -169.68791716058755 69.480207300043645 -45.643182284700174 -169.68791716058755 69.480207300043631 -211.77175456707207 2.6947380418690832e-16 -5.9617279267309055e-15 -1.0211934239434454e-15 -178.00274894759514 1.0955269047485672e-07 4.3586418030372449e-08 0.00030747924722263065 0.0089971323914367733 2.3417081620371068e-21 1.7612136339911845e-19 5.3093961290227122e-20 0.0092025421604528292 -44.232698507600013 -168.00161050399998 83.276389748800028 1737.4139093181343 0.0000000000000000 0.0000000000000000 0.0000000000000000 0.0000000000000000 3.3365592512631252 3.6975378640527623 1.3614791775180304 1.1668551784978451 2161.3216284317200 2157.7641702612100 1.1668244374710912 
-45.584513974476522 -187.68950911457895 97.081217304252561 -45.584513974476522 -187.68950911457890 97.081217304252618 -221.18415361275424 -1.7112499871781585e-16 -2.9548870519220051e-15 -2.5411240269437843e-15 -7.3983738228177670e-30 1.0943823913756034e-07 5.2459879551491895e-08 0.00024361102872916263 0.0091623930853599374 1.5061003160475265e-20 1.0305606064641776e-19 6.9100206898669532e-21 5.9671684326169415e-31 -44.175503749389676 -185.65989863464350 108.01171823852533 1616.4576808433910 0.0000000000000000 0.0000000000000000 0.0000000000000000 0.0000000000000000 3.3362025991545359 3.6968198743842771 1.3611172887580507 1.1667796772973502 2183.2785864538500 2182.2015980630690 1.1666692679077637 
-89.854879126727724 -142.76154723293564 131.98099676665493 -89.854879126727653 -142.76154723293567 131.98099676665504 -158.84908810365002 -9.4312321267450140e-16 -5.9683763357938239e-16 6.9011240236923955e-16 0.0000000000000000 1.9580167576194185e-07 3.0313683119231889e-08 0.00016285359489387474 0.0084773990107901102 3.5806365198733431e-20 1.7417163258061735e-20 -1.3163280360438012e-20 0.0000000000000000 -87.333945182495100 -141.58874659118649 139.28801968872074 1877.7986991733408 0.0000000000000000 0.0000000000000000 0.0000000000000000 0.0000000000000000 3.3358997492884734 3.6961383949019924 1.3607374646726811 1.1665238621237497 2071.1761012273564 2100.1157273900444 1.1665061571974984 
-67.719696550602123 -165.22552817375728 131.98099676665493 -67.719696550602137 -165.22552817375714 131.98099676665507 -141.13624667296477 -2.1742881355996041e-15 -8.0498618506021907e-16 1.1854025678595285e-15 -8.6125482086339671e-31 1.5261995400805972e-07 4.1386767346551778e-08 0.00016285359489387474 0.0080998653877474118 7.7225193402399515e-20 3.7748916885203234e-20 -2.9670549685130773e-20 3.7462896642459160e-32 -65.754724465942374 -163.62432261291517 139.28801968872077 2018.1238718776010 0.0000000000000000 0.0000000000000000 0.0000000000000000 0.0000000000000000 3.3357978900521217 3.6959484139254180 1.3606494436757754 1.1667271727248798 2037.9556964033122 2037.0781736065121 1.1664688868779005 
-89.854879126727724 -165.22552817375728 114.53110703545377 -89.854879126727653 -165.22552817375717 114.53110703545373 -173.05389468397476 -1.5284337550234418e-15 -1.2255392636663124e-15 -9.0922287847929694e-16 0.0000000000000000 1.9580167576194188e-07 4.1386767346551778e-08 0.00020323231181151866 0.0086186871951121902 5.4739080914058403e-20 3.9892366971100575e-20 1.1124385010914431e-20 0.0000000000000000 -87.333945182495114 -163.62432261291505 123.64986896362312 1549.0027140339625 0.0000000000000000 0.0000000000000000 0.0000000000000000 0.0000000000000000 3.3369756144560507 3.6984552594489339 1.3619826844419698 1.1669001532026053 2099.0312839210806 2117.8443246862448 1.1670399833223408 
-89.854879126727724 -142.76154723293564 114.53110703545377 -89.854879126727653 -142.76154723293564 114.53110703545373 -137.50369482473948 -3.8501165819134880e-15 -1.7866810924448632e-15 4.3951845749521706e-16 0.0000000000000000 1.9580167576194185e-07 3.0313683119231889e-08 0.00020323231181151868 0.0080429551735022135 1.3917871421720672e-19 5.3360038690982035e-20 7.8268935386593998e-21 0.0000000000000000 -87.333945182495086 -141.58874659118649 123.64986896362313 1389.1126189879024 0.0000000000000000 0.0000000000000000 0.0000000000000000 0.0000000000000000 3.3357886826135363 3.6957153525347759 1.3604176968547343 1.1667670676619810 2024.6297886222733 2039.3417804359406 1.1663701953004262 
-46.632978069509996 -110.89886632017527 31.062179073315981 -46.632978069510003 -110.89886632017532 31.062179073315978 -276.20423190539901 1.0862442785969473e-15 1.7638893158199025e-15 -2.5140970899057596e-15 -277.42258375345688 1.1148360057333662e-07 1.4607725695725550e-08 0.00039637784259483050 0.010757525078480145 1.6091135354956671e-20 -1.8283058280510887e-20 5.5390954199731450e-20 0.010360143715911822 -45.197633928000002 -110.33371083599998 48.847122559999995 1069.0094105005942 0.0000000000000000 0.0000000000000000 0.0000000000000000 0.0000000000000000 3.3365881372940867 3.6976438754931418 1.3615580524757021 1.1668551784978458 2275.4980697643327 2275.4982488810092 1.1668581939169298 
-58.866235789388980 -99.172787929625031 28.137429817920971 -58.866235789388995 -99.172787929624988 28.137429817920971 -312.71496203782135 -1.2774164819489532e-15 1.9964901386132490e-15 -3.3416514245671354e-15 -315.79135716006118 1.3534846399210207e-07 8.8276190801650500e-09 0.00040314565740828812 0.011428880615398143 6.5801904983118855e-20 -1.4825343089060814e-20 5.1904271217923762e-20 0.012125933411495763 -57.123633070400032 -98.831257531200038 46.226036100800002 1475.5774262919704 0.0000000000000000 0.0000000000000000 0.0000000000000000 0.0000000000000000 3.3365825877279183 3.6976318748801971 1.3615515742275588 1.1668551784978456 2342.4877596789793 2342.4377509743140 1.1668554208841817 
-61.959947551728398 -106.05986593945161 40.450728101668957 -61.959947551728412 -106.05986593945160 40.450728101668957 -252.57190387272178 1.4293798647665207e-16 6.4181861733615724e-15 -6.4776332942310962e-15 -158.53026444023956 1.4138373449767982e-07 1.2222449274901239e-08 0.00037465291656957339 0.010470709519242040 6.7746462350748553e-20 -7.6825540293258381e-20 1.7314684748096637e-19 0.013418284087979793 -60.139641125599979 -105.58699381199996 57.260903223199996 1724.6135661994952 0.0000000000000000 0.0000000000000000 0.0000000000000000 0.0000000000000000 3.3365686096209064 3.6976026244101678 1.3615362763183718 1.1668551784978460 2225.0432691478300 2225.4935932486269 1.1668488728167863 
-20.176876075499500 -88.249267053571160 40.939665551849323 -20.176876075499504 -88.249267053571188 40.939665551849323 -260.57581013696461 -8.8354221419285552e-16 6.3470733042796444e-16 -4.8056193332370279e-15 -265.70960984388068 5.9872551472217594e-08 3.4431357764930222e-09 0.00037352152449798831 0.010529833106744537 1.0886242931700430e-20 -6.5448665232449559e-20 5.3860958036278817e-21 0.010534533346514051 -19.406020858399991 -88.116056368799974 57.699076624800000 1439.6451283969650 0.0000000000000000 0.0000000000000000 0.0000000000000000 0.0000000000000000 3.3365756413252705 3.6976170858323485 1.3615437079300006 1.1668551784978456 2253.6806352979079 2253.7969459453311 1.1668520554930877 
-60.561724635434295 -180.48045354603201 64.435200297108565 -60.561724635434288 -180.48045354603207 64.435200297108594 -268.25019701230497 -6.7479342187769252e-16 -1.0987919268016085e-15 -1.5901529979298527e-15 -281.45498325972130 1.3865605730245534e-07 4.8906326988173994e-08 0.00031915329861931241 0.0099272694001392853 2.4918332357784401e-20 5.9174265801077226e-21 6.0723863380685993e-20 0.010993954026792272 -58.776536899199989 -178.58832514800000 78.755181813599989 1584.4809985467919 0.0000000000000000 0.0000000000000000 0.0000000000000000 0.0000000000000000 3.3370591528397289 3.6986663848604149 1.3621125444339053 1.1668551784978460 2268.9210349112577 2269.9233697231098 1.1670959580266000 
-76.652716400528774 -186.95848253221834 57.149328349131004 -76.652716400528774 -186.95848253221834 57.149328349131004 -281.73961723046403 -3.2424101785474689e-16 -9.9070990980408491e-16 -4.3312762162492713e-16 -283.42781558732844 1.7004666408304556e-07 5.2099530023497209e-08 0.00033601266938632074 0.010234624455164182 3.8538881538603767e-21 6.8182304881956678e-21 1.8691407863274120e-20 0.0099432479086037796 -74.463376691600018 -184.94281327599995 72.225767276240006 1182.3928641350060 0.0000000000000000 0.0000000000000000 0.0000000000000000 0.0000000000000000 3.3365273249592069 3.6974711922033445 1.3614439640568692 1.1668551784978463 2292.4997655664042 2292.2800495596489 1.1668092304992383 
-71.804337939732747 -214.12216638511669 73.180242346288082 -71.804337939732733 -214.12216638511671 73.180242346288082 -273.84578227607858 1.5237828719343215e-16 2.0718523783847237e-16 -1.4932819358050281e-15 -273.79636575761424 1.6058835128340831e-07 6.5489213607605721e-08 0.00029891743565357848 0.010031058428089669 -1.5640961106943084e-21 2.5204989814679639e-21 1.2725199942443644e-20 0.010074507518594388 -69.736773305200003 -211.58846536000007 86.592267764799999 1391.6778601551057 0.0000000000000000 0.0000000000000000 0.0000000000000000 0.0000000000000000 3.3366749811132221 3.6978737248856750 1.3617034624349744 1.1668551784978467 2273.5328198714487 2273.6366403715879 1.1669206059745834 
-89.321378281170055 -209.72373628110654 77.326599323345874 -89.321378281170070 -209.72373628110654 77.326599323345846 -263.31217464402073 1.0208383834633446e-15 -4.9154238158989143e-16 -1.7126092487321865e-15 -283.13208214302506 1.9476091317471853e-07 6.3321130117088842e-08 0.00028932284352123361 0.0099357540244344178 -1.9343577869158883e-20 1.3921292779334968e-20 -1.6032320930322661e-20 0.010055780671180641 -86.813844096400004 -207.27391660800001 90.308128229600001 1955.0875990986240 0.0000000000000000 0.0000000000000000 0.0000000000000000 0.0000000000000000 3.3369239949213036 3.6983734706340452 1.3619539886757495 1.1668551784978463 2266.8037621862832 2267.6327691940160 1.1670279825172538 
-76.560639961906034 -215.13842536398244 88.874520500583586 -76.560639961906034 -215.13842536398244 88.874520500583586 -251.93243765143629 -5.5066356655204595e-17 8.7398639403024689e-17 -5.4652588904943915e-16 -258.80445408266104 1.6986703155197347e-07 6.5990180875274973e-08 0.00026260117091325696 0.0097075015903562486 9.3780882581789681e-22 -1.5144223110472078e-21 1.0439336204232457e-20 0.0098329843388251566 -74.373612905599998 -212.58534351999998 100.65708370800000 988.41240310934302 0.0000000000000000 0.0000000000000000 0.0000000000000000 0.0000000000000000 3.3369113638316668 3.6983997860697619 1.3619952346059068 1.1668551784978463 2245.6260615069518 2245.8187385405267 1.1670457444119327 
-67.719696550602123 -187.68950911457895 97.081217304252561 -67.719696550602137 -187.68950911457890 97.081217304252618 -222.81638405955718 3.9930645430031575e-16 -2.2906353476644693e-15 -2.7429219953362287e-15 -4.7855036684795171e-29 1.5261995400805972e-07 5.2459879551491895e-08 0.00024361102872916268 0.0092921010249908988 -2.6949540318115608e-22 7.7771463690357746e-20 9.6282997865861821e-21 3.8678515006310061e-30 -65.754724465942374 -185.65989863464350 108.01171823852535 1808.0980320372519 0.0000000000000000 0.0000000000000000 0.0000000000000000 0.0000000000000000 3.3353181155618574 3.6947281747175991 1.3598971555619757 1.1664991002114775 2181.1459975245621 2178.5524497724687 1.1661458164214273 
-85.882518955149450 -210.83157339959331 98.211771831543956 -85.882518955149436 -210.83157339959328 98.211771831543956 -233.21728477534393 5.7909088513014661e-16 -5.0900075630347801e-16 -2.1595548183004430e-15 -228.11887361041641 1.8805232793184243e-07 6.3867214183943588e-08 0.00024099494680029920 0.0094749063832718240 -1.5070926936052946e-20 7.6667479835912889e-21 2.8229524121653913e-20 0.0094684542612830675 -83.461357431600007 -208.36062644399999 109.02489266960001 1287.0831768928649 0.0000000000000000 0.0000000000000000 0.0000000000000000 0.0000000000000000 3.3370355261237172 3.6986470594687328 1.3621180788099481 1.1668551784978460 2198.2718430809769 2201.9144965036899 1.1670982833635704 
-42.900435921436760 -130.99466993022733 49.928512526035369 -42.900435921436767 -130.99466993022730 49.928512526035362 -195.86191292865956 1.6540704160004091e-15 8.7212535115098058e-16 -2.9925078255149197e-15 -202.30492466983054 1.0420209117789625e-07 2.4513473917409098e-08 0.00035272150151399723 0.0093025177403351852 -1.5919170452336041e-20 9.2911550851331768e-21 8.7360447559270412e-20 0.010153111120669443 -41.558840772800004 -130.04627243999997 65.754654395919971 2180.9238908936368 0.0000000000000000 0.0000000000000000 0.0000000000000000 0.0000000000000000 3.3366660516653890 3.6978112854265226 1.3616478714227933 1.1668551784978463 2146.9854453332873 2144.0722464506025 1.1668966321118504 
-23.646088095419401 -135.47903229064246 38.938847219133798 -23.646088095419401 -135.47903229064244 38.938847219133798 -238.73249548308675 9.8956094908347564e-16 4.7370252266412845e-16 -1.1662861792212455e-15 -240.35478604120090 6.6640353457714241e-08 2.6723936841221981e-08 0.00037815138052366137 0.0099786041674115172 -8.5909306716967274e-21 7.1878212273729753e-21 1.7870000254378655e-20 0.0098915527853490250 -22.788097858800000 -134.44511465599999 55.905993737599999 935.86986824075086 0.0000000000000000 0.0000000000000000 0.0000000000000000 0.0000000000000000 3.3365357159924831 3.6975302385714963 1.3614965697307573 1.1668551784978465 2209.2670824323504 2209.5808999360893 1.1668318861678415 
-11.580717829680497 -104.03672588943461 45.860095936849000 -11.580717829680502 -104.03672588943461 45.860095936849000 -234.24898738454169 -7.3214816485717023e-16 -4.8887243996558737e-16 -4.1388135337473631e-15 -228.11635785664390 4.3103008329214993e-08 1.1225188556451826e-08 0.00036213574104948520 0.0099376208766566235 2.9276202534385551e-21 -3.2988116088740241e-20 1.1332870798836549e-20 0.0098398874644481851 -11.025769398400001 -103.60243655599999 62.108642139439993 1284.9349949311236 0.0000000000000000 0.0000000000000000 0.0000000000000000 0.0000000000000000 3.3365602575207571 3.6975842938906904 1.3615262488892090 1.1668551784978460 2213.0556063737235 2213.7940659737515 1.1668445850241622 
-30.012138968103262 -141.92108073294426 54.745199060338102 -30.012138968103265 -141.92108073294426 54.745199060338102 -195.82225951470249 1.1485324676713657e-15 1.4782533886142359e-15 -3.3249840863093177e-15 -193.72686085345072 7.9059364166411683e-08 2.9899400733057746e-08 0.00034157577938742634 0.0091742305258322460 -1.6687892414877007e-20 9.0766003302339719e-21 8.0086153845406666e-20 0.010224376137141578 -28.994254794799993 -140.76430841599998 70.071247290159988 2176.9829965296321 0.0000000000000000 0.0000000000000000 0.0000000000000000 0.0000000000000000 3.3367121270887585 3.6979149361443140 1.3617058511154605 1.1668551784978463 2134.6662757728232 2134.8712051703883 1.1669214275286970 
-106.34141329712182 -196.24672596589539 81.491286994762476 -106.34141329712180 -196.24672596589542 81.491286994762490 -245.42946411470365 -2.3287065225595918e-16 -6.6906035274402133e-17 -1.5678493484652399e-15 -259.05203422990928 2.2796391352386533e-07 5.6677943227612104e-08 0.00027968583452064877 0.0097567504079066891 4.5302876559301599e-21 -1.0351399120956796e-20 -1.3356690765962538e-21 0.0097011284575094815 -103.40639267600000 -194.05392295999994 94.040416199999996 2662.2783756828549 0.0000000000000000 0.0000000000000000 0.0000000000000000 0.0000000000000000 3.3368376026400735 3.6982272401148348 1.3618953457032903 1.1668551784978460 2227.0838606812549 2225.9957522647119 1.1670028796675320 
-84.905113179592107 -163.87686793736682 63.371469954799686 -84.905113179592078 -163.87686793736691 63.371469954799693 -251.55427136194493 -1.8477788937867091e-15 -1.9064430687588939e-15 -2.6723067370998503e-15 -250.33365417403849 1.8614559360585758e-07 4.0721995997472504e-08 0.00032161475063929856 0.0099005443607959216 2.9556666804895104e-20 3.1240450280042182e-20 1.0759413898496823e-19 0.011873539743092442 -82.508500824799995 -162.30138233600007 77.801893530400037 2229.3857910936085 0.0000000000000000 0.0000000000000000 0.0000000000000000 0.0000000000000000 3.3370520566769430 3.6986561956643800 1.3621093847727652 1.1668551784978456 2236.7208800731382 2236.5115974774581 1.1670946572773859 
-28.983134236314495 -125.91356152731942 118.89357946825407 -28.983134236314502 -125.91356152731942 118.89357946825399 -58.527948660230493 -1.1415413806614429e-15 2.6103902240374854e-16 3.7151945842795289e-15 -1.4813422012100079e-29 7.7051961810958845e-08 2.2008863176381507e-08 0.00019313763258566041 0.0062688159288805060 5.5627953058929609e-20 -1.3067603308176719e-20 -6.7614348095946596e-20 9.9853769793805398e-31 -27.991095225219734 -125.06206457489009 127.55940664489751 1124.7619503421174 0.0000000000000000 0.0000000000000000 0.0000000000000000 0.0000000000000000 3.3361973562118830 3.6967393871631029 1.3610396518823722 1.1669955173255968 1877.8552215132227 1878.6202170908746 1.1666358671861901 