# For a description of the Tecplot format see the Tecplot User's guide.
#
Variables=x,y,z,s_u,s_v,s_w,s_p,mono_f_vel_u,mono_f_vel_v,mono_f_vel_w,const,u_nu,v_nu,w_nu,p_nu,x_nu,y_nu,z_nu,const,u_ref,v_ref,w_ref,vol_ref,x_ref,y_ref,z_ref,const,I1,I2,I3,J,p1,p2,p3
Zone f=fepoint, n=356, e=1130, et=brick, c=black
-65.8925 -97.5399 91.5475 -65.892506105368241 -97.539879188051188 91.547548405467566 -66.810221077489146 -1.1782013451847585e-05 1.2466883050805732e-05 8.6072936861290760e-05 9.8348679834873373e-20 8.0646523833993733e-10 5.7126525732087436e-11 3.3958241685283497e-07 2.5970837840316630e-05 7.9673922833794355e-12 -8.8582520060366216e-12 -2.3277141795682160e-11 -2.4713773075471414e-20 -65.754724465942431 -97.517594547729473 92.373562431030237 2074.8615187338191 0.0000000000000000 0.0000000000000000 0.0000000000000000 0.0000000000000000 3.0214219892940393 3.0429503715928612 1.0215285349545764 1.0107141671501390 210.67092141153165 190.51561205158299 1.0107069383446652 
-75.902937677356149 -130.62778827177442 77.957156967574392 -75.902937677356164 -130.62778827177448 77.957156967574377 -50.182677538254573 -4.9131867951129149e-05 -1.8971140570751770e-05 1.4835854686284838e-05 -25.482293161924698 9.1212856365152639e-10 1.7324719436828673e-10 3.8123022538805174e-07 2.1396624341480055e-05 3.2468253084153192e-11 1.4454493449636629e-11 -1.5437417546747210e-11 -8.7592275390210098e-06 -75.747104543999981 -130.56019973999997 78.884476808000016 2128.8259272129790 0.0000000000000000 0.0000000000000000 0.0000000000000000 0.0000000000000000 3.0214229105950188 3.0429528045273817 1.0215300472740183 1.0107141671501390 185.48433648877685 171.28285999637924 1.0107076710712168 
-63.555842751269914 -121.85018842560692 70.255903176231826 -63.555842751269907 -121.85018842560692 70.255903176231826 -26.378565354868766 3.5567049657575822e-05 -3.0324450561125422e-06 3.9009997508262033e-06 13.199623217900719 7.8180972459818143e-10 1.4244483370617900e-10 4.0483074559283244e-07 1.1912338385636125e-05 -2.4834505738904743e-11 7.9815450063502754e-14 -2.2506875201361628e-12 -1.7957923734964673e-05 -63.422274742800013 -121.79461816400000 71.240629883439979 1237.7701333319521 0.0000000000000000 0.0000000000000000 0.0000000000000000 0.0000000000000000 3.0214869765458738 3.0430793268798086 1.0215924974450965 1.0107141671501392 124.83127275666014 86.093208389512341 1.0107385970139660 
-56.272752767570985 -132.14921885914742 75.697250475554910 -56.272752767570985 -132.14921885914740 75.697250475554924 -36.138510881910719 5.4474006790715336e-05 -7.4751848233514752e-06 -2.0994065019779660e-05 -49.018663736051437 7.0493656398329385e-10 1.7859408396603274e-10 3.8815572289685463e-07 1.5290345728605156e-05 -3.1433786678792944e-11 1.3150976027265134e-11 1.5186734899540918e-11 5.4809748894888014e-05 -56.152318124399997 -132.07954718800002 76.641416164000006 2090.5778096190215 0.0000000000000000 0.0000000000000000 0.0000000000000000 0.0000000000000000 3.0212905431155650 3.0426879804713352 1.0213975925929797 1.0107141671501390 170.27039290242172 159.68877344539351 1.0106421550948868 
-123.13887791904891 -110.42733344599993 88.357633032386545 -123.13887791904889 -110.42733344599995 88.357633032386531 -116.07455279387447 -3.7480079928965561e-06 -1.9385296663261360e-06 -1.6611084780959187e-05 -114.78772079805694 1.4107084077286116e-09 1.0235262637436904e-10 3.4935792769807961e-07 4.3979718499706136e-05 2.9306718230930390e-13 -5.7975228908178788e-13 7.5881203365851503e-12 4.5073285140276225e-05 -122.89786571200003 -110.38740333199999 89.207425400000020 2092.2379289329847 0.0000000000000000 0.0000000000000000 0.0000000000000000 0.0000000000000000 3.0214688040086983 3.0430437988603103 1.0215751452078485 1.0107141671501387 325.09831299286463 320.86626263701982 1.0107300148688678 
-123.01059646116234 -128.56888455338699 92.664251089799137 -123.01059646116234 -128.56888455338702 92.664251089799123 -112.13924150819082 -2.9724863903022721e-06 -1.7914317622568283e-05 -3.6707480311330760e-05 -153.25899123654625 1.4093548793281396e-09 1.6602250130226539e-10 3.3616028560778943e-07 4.3287318690615131e-05 -2.6562891640841969e-13 1.1216759808840687e-11 5.6617925605145203e-12 4.7037508853879914e-05 -122.76981557999994 -128.50411506799998 93.481940963999989 2295.0048277193882 0.0000000000000000 0.0000000000000000 0.0000000000000000 0.0000000000000000 3.0214673437814974 3.0430401179060742 1.0215729213577287 1.0107141671501390 339.79704792893148 336.35060370587627 1.0107289049061254 
-87.510710244163008 -119.60566763819980 107.30314998811043 -87.510710244162979 -119.60566763819985 107.30314998811039 -62.029911404140108 -1.4003351844130915e-06 4.3483497034240111e-05 -4.7731309629332659e-05 -4.9512630601138290e-20 1.0346542476946663e-09 1.3456888381391252e-10 2.9129932044291706e-07 2.4928405142476617e-05 2.2379888869457611e-13 -2.5591464183009343e-11 1.1267731899858182e-11 1.2457497184930532e-20 -87.333945182495114 -119.55317056945796 108.01171823852533 1853.2119812635015 0.0000000000000000 0.0000000000000000 0.0000000000000000 0.0000000000000000 3.0213857995069033 3.0428789301831833 1.0214932898910976 1.0107141671501390 224.13976220404282 239.55228330320003 1.0106895283907453 
-122.13601713198155 -119.00096045301017 106.32177380258710 -122.13601713198156 -119.00096045301017 106.32177380258712 -64.275472634111708 -5.9954733399834683e-06 1.5876960859764403e-05 -6.5540802296289069e-05 -61.097590274433415 1.4001231250782009e-09 1.3245091134983511e-10 2.9430675230202047e-07 2.5023536678006947e-05 -7.4920363220475106e-13 -1.0117952015572890e-11 1.5577382480031159e-11 1.8736106402408468e-05 -121.89681335200000 -118.94929134799999 107.03765745040002 1571.7251237143605 0.0000000000000000 0.0000000000000000 0.0000000000000000 0.0000000000000000 3.0214184627674276 3.0429421489661861 1.0215238314314290 1.0107141671501394 220.07421715493368 220.73785321546072 1.0107046122394203 
-44.274301966573397 -163.73724453849712 123.05874645018599 -44.274301966573383 -163.73724453849715 123.05874645018596 -19.272297054064381 1.8767902142481356e-05 -4.4977907169918630e-06 -1.7643406815991406e-06 0.0000000000000000 5.7829038432877233e-10 2.8946800512130716e-10 2.4301623291478336e-07 1.0865353593003723e-05 -1.9722765212234367e-11 -4.5504053097490355e-12 3.9822655080472746e-12 0.0000000000000000 -44.175503749389662 -163.62432261291502 123.64986896362305 1288.7765825848380 0.0000000000000000 0.0000000000000000 0.0000000000000000 0.0000000000000000 3.0218289813726007 3.0437738588877483 1.0219450576067968 1.0109716734870708 146.13986450848248 186.46343065976905 1.0109130040859369 
-15.525183683109409 -143.95059854994622 135.56509065912599 -15.525183683109413 -143.95059854994628 135.56509065912593 -22.940470791326565 2.7400719542425906e-06 -1.5926782968028292e-05 -5.8852208726760309e-06 6.0673577661783709 2.7484386294629459e-10 2.2001206412269880e-10 2.0469047656845876e-07 1.1197824341702702e-05 -1.6949125410706103e-12 1.0407915266149026e-11 1.3486943591576584e-11 -3.9248252015314013e-07 -15.478227839600008 -143.86476845600004 136.06298808800005 1207.7015194609139 0.0000000000000000 0.0000000000000000 0.0000000000000000 0.0000000000000000 3.0212737067406032 3.0426516023803694 1.0213780394706389 1.0107551742881860 161.15393381669929 156.82291922715848 1.0106324767196013 
-44.274301966573397 -163.73724453849712 138.81434291226154 -44.274301966573383 -163.73724453849715 138.81434291226162 -30.602200891141965 7.9168551913968969e-06 -8.5432774523788880e-06 3.1911138109461046e-06 0.0000000000000000 5.7829038432877233e-10 2.8946800512130721e-10 1.9473314560869426e-07 1.3438427410843652e-05 -5.5016703634173519e-12 9.2302401325996836e-12 -3.2206303332081406e-12 0.0000000000000000 -44.175503749389669 -163.62432261291511 139.28801968872074 2260.0113226803110 0.0000000000000000 0.0000000000000000 0.0000000000000000 0.0000000000000000 3.0213379128873767 3.0427810825239843 1.0214433174070732 1.0107912592556585 176.13062507541116 173.25288074115119 1.0106648262493616 
-5.9114931170987486 -161.56868203462972 129.88515900808810 -5.9114931170987477 -161.56868203462972 129.88515900808810 -55.946082012943535 1.5125457492692325e-05 -6.8903265666674212e-06 1.1741490440104462e-05 -79.041339034436618 1.7337176486109660e-10 2.8184438116696237e-10 2.2209665773154089e-07 2.3232133557985530e-05 -8.0993319957689909e-12 7.1800729721652616e-12 -5.5232579154555289e-12 2.3615164142392112e-05 -5.8818733370400009 -161.45872929999999 130.42539591680000 1840.5999298976626 0.0000000000000000 0.0000000000000000 0.0000000000000000 0.0000000000000000 3.0213785845852472 3.0428619287266589 1.0214834911198560 1.0107141671501381 226.40596143266646 220.23009156944693 1.0106846656686410 
-9.8173310646172744 -107.14440469926882 182.84362444745753 -9.8173310646172762 -107.14440469926879 182.84362444745756 -46.149056890648282 2.1679780711722412e-06 5.7476181209490635e-06 -5.9711681149542003e-06 -47.816711669105544 2.1459789154021356e-10 9.0833396360068251e-11 5.9805232766052554e-08 1.8970799577919333e-05 8.3469982148242017e-13 -2.4351382727172851e-12 1.2568364134786252e-12 1.8565409621072839e-05 -9.7806680107999995 -107.10896956400003 182.98909712000000 1021.2952016557671 0.0000000000000000 0.0000000000000000 0.0000000000000000 0.0000000000000000 3.0214436868774750 3.0429932543602405 1.0215497171512569 1.0107141671501390 201.31312188844842 200.29951235523390 1.0107174273959663 
-17.616493761881443 -108.67476497314870 193.32658644484451 -17.616493761881440 -108.67476497314871 193.32658644484448 -50.778554500615698 -1.3986055857229833e-05 1.0298599258544849e-05 8.6462766423169473e-06 -55.059825614926865 2.9691636302398017e-10 9.6196800525305574e-11 2.7680151060138762e-08 1.9487057079694180e-05 1.4194496418538126e-12 -5.8355697757633716e-12 -1.4199275125620201e-12 2.4201272468471414e-05 -17.565766725200003 -108.63723447200002 193.39391677600000 1230.2822850381203 0.0000000000000000 0.0000000000000000 0.0000000000000000 0.0000000000000000 3.0214417446518840 3.0429892784271608 1.0215476831460910 1.0107141671501378 214.09896495628203 213.21639733962166 1.0107164192167850 
-44.274301966573397 -119.60566763819980 170.32553583641268 -44.274301966573468 -119.60566763819968 170.32553583641297 -51.346507433289240 -3.4499342173566007e-07 6.5074015491163859e-06 1.5187470532278631e-05 0.0000000000000000 5.7829038432877244e-10 1.3456888381391252e-10 9.8166970108337663e-08 1.9869938223725154e-05 -4.7126770654317987e-14 -5.1977795151527175e-12 -3.7804764615552019e-12 0.0000000000000000 -44.175503749389591 -119.55317056945772 170.56432113891603 1872.3464537223574 0.0000000000000000 0.0000000000000000 0.0000000000000000 0.0000000000000000 3.0214178723542751 3.0429417475860121 1.0215240261813916 1.0107141671501396 208.99085701536350 212.23770664586445 1.0107047268849148 
-9.3676921225663019 -124.45624693511617 188.76328209847156 -9.3676921225663019 -124.45624693511617 188.76328209847156 -48.845769364501926 3.6320421002973720e-06 -2.6444946403941895e-05 -7.7070342570484369e-06 -49.589895348081328 2.0985217036306736e-10 1.5158940769310902e-10 4.1664411698505432e-08 1.8845449785899122e-05 1.5834888959805973e-12 1.2760809017546867e-11 1.1781799722418409e-12 1.6313776975214915e-05 -9.3318398883999993 -124.39710846400000 188.86462832000004 1016.3527334425750 0.0000000000000000 0.0000000000000000 0.0000000000000000 0.0000000000000000 3.0214419630060934 3.0429896784029671 1.0215478646181892 1.0107141671501385 214.05846148594040 213.46738053295979 1.0107165075818276 
-44.274301966573397 -163.73724453849712 107.30314998811043 -44.274301966573383 -163.73724453849715 107.30314998811039 -39.429117788570579 -6.2432252009144811e-06 -5.0587096439900067e-05 -2.4077344533450950e-05 4.7196984908240997e-19 5.7829038432877223e-10 2.8946800512130716e-10 2.9129932044291712e-07 1.7324637387169559e-05 2.3367009327324812e-13 3.5016764386067382e-11 8.7821492058155458e-12 -1.1865775389350450e-19 -44.175503749389662 -163.62432261291499 108.01171823852535 1450.3671205666894 0.0000000000000000 0.0000000000000000 0.0000000000000000 0.0000000000000000 3.0219126358541071 3.0439374294056827 1.0220249574289717 1.0109474270732393 157.65606032347580 183.94465295542008 1.0109523645085543 
-61.283124457213766 -161.06410774864068 85.128922886227699 -61.283124457213738 -161.06410774864068 85.128922886227684 -108.20493036517939 -2.2075783149753738e-05 -7.8543501220238650e-05 -1.6755214640281803e-05 -55.766528394559359 7.5781854055878561e-10 2.8008564911807809e-10 3.5925231878231051e-07 4.1704600693741377e-05 9.2451527859323417e-12 4.9478246698519275e-11 1.6998599463703569e-11 4.4446065282809602e-05 -61.153654769600031 -160.95484587600001 86.002782780800032 1645.6757988676138 0.0000000000000000 0.0000000000000000 0.0000000000000000 0.0000000000000000 3.0199621043525222 3.0400216884197544 1.0200597223420174 1.0103760330224600 318.24088096040731 316.84183263553138 1.0099801170115834 
-44.331600048598759 -168.12053401978119 82.382054080297422 -44.331600048598752 -168.12053401978119 82.382054080297408 -158.08290235687844 2.7102316343179505e-05 -0.00012009888021377657 -1.9753394028261183e-05 -118.12585619028438 5.7889864776838884e-10 3.0484265112207254e-10 3.6767010658245175e-07 6.1370807578455243e-05 -1.1323135668832843e-11 7.1498031381496596e-11 2.0372489033767324e-11 7.5123243544974612e-05 -44.232698507600013 -168.00161050399998 83.276389748800028 1737.4139093181343 0.0000000000000000 0.0000000000000000 0.0000000000000000 0.0000000000000000 3.0215519380708127 3.0432098833194625 1.0216580945065468 1.0107141671501390 401.77007816557045 397.45952930487294 1.0107710827221337 
-44.274301966573397 -185.80303298864575 107.30314998811043 -44.274301966573383 -185.80303298864581 107.30314998811041 -142.21651966875251 2.4356648573287650e-06 -3.9111000522165968e-05 -9.8275245971180629e-05 -2.2883551013654061e-20 5.7829038432877244e-10 3.6689626337071951e-10 2.9129932044291706e-07 5.5716926844503564e-05 -3.3470937733249498e-13 3.0127626964177971e-11 1.8258284197126095e-11 5.7674785411981159e-21 -44.175503749389676 -185.65989863464350 108.01171823852533 1616.4576808433910 0.0000000000000000 0.0000000000000000 0.0000000000000000 0.0000000000000000 3.0210549689422121 3.0422122418408568 1.0211574140641069 1.0106368943593973 380.74693008667424 379.70201817341331 1.0105233154694204 
-87.510710244163008 -141.67145608834846 138.81434291226154 -87.510710244162979 -141.67145608834838 138.81434291226157 -48.830690031959016 -3.2772471068394136e-06 -6.2224732562115741e-06 3.9722967591852031e-07 0.0000000000000000 1.0346542476946663e-09 2.1201135291804007e-10 1.9473314560869428e-07 2.1092089269381848e-05 2.6141970598169095e-12 4.1634025873146090e-12 2.8274180175783160e-13 0.0000000000000000 -87.333945182495100 -141.58874659118649 139.28801968872074 1877.7986991733408 0.0000000000000000 0.0000000000000000 0.0000000000000000 0.0000000000000000 3.0216457381974764 3.0433991720081899 1.0217535806922029 1.0107865529136824 208.37634443875228 208.06242013823953 1.0108183390595895 
-65.892506105368213 -163.73724453849712 138.81434291226154 -65.892506105368255 -163.73724453849715 138.81434291226165 -41.161310055480612 -1.2796959992811635e-05 1.0752343263818104e-06 7.9118759336616948e-06 3.0111980943738703e-20 8.0646523833993733e-10 2.8946800512130727e-10 1.9473314560869426e-07 1.9334987501459647e-05 1.0846128515706885e-11 2.2561520138626712e-12 1.3411274368102022e-13 -7.5625982870908648e-21 -65.754724465942374 -163.62432261291517 139.28801968872077 2018.1238718776010 0.0000000000000000 0.0000000000000000 0.0000000000000000 0.0000000000000000 3.0212845522259926 3.0426742500155344 1.0213898457406423 1.0108306331774988 193.53836818316336 194.17923692590472 1.0106383798275760 
-87.510710244163008 -163.73724453849712 123.05874645018599 -87.510710244162979 -163.73724453849715 123.05874645018595 -63.546109545015568 -2.1053496739819969e-05 -1.2082467760609169e-05 8.9952780077841266e-07 0.0000000000000000 1.0346542476946665e-09 2.8946800512130727e-10 2.4301623291478331e-07 3.1030455843277736e-05 4.7405932665603776e-12 5.6850943509710790e-12 9.7428902210154165e-12 0.0000000000000000 -87.333945182495114 -163.62432261291505 123.64986896362312 1549.0027140339625 0.0000000000000000 0.0000000000000000 0.0000000000000000 0.0000000000000000 3.0217806962674834 3.0436685372338572 1.0218879938022305 1.0108162654998212 229.37717452783662 259.90106161129074 1.0108846715846556 
-87.510710244163008 -141.67145608834846 123.05874645018599 -87.510710244162979 -141.67145608834838 123.05874645018596 -39.099842052529404 -1.9439631913347059e-05 -9.6429585756898821e-06 2.3427611396160924e-05 0.0000000000000000 1.0346542476946663e-09 2.1201135291804010e-10 2.4301623291478336e-07 1.8305234812683127e-05 1.1844645952948609e-11 1.0693835129943986e-11 -6.7275882914304810e-12 0.0000000000000000 -87.333945182495086 -141.58874659118649 123.64986896362313 1389.1126189879024 0.0000000000000000 0.0000000000000000 0.0000000000000000 0.0000000000000000 3.0213083759300621 3.0427225163675886 1.0214142758263978 1.0107946860901216 176.24581862015776 209.98636336808522 1.0106505299428719 
-45.298278649877432 -110.37356733355848 47.694215994613280 -45.298278649877425 -110.37356733355848 47.694215994613280 -192.58905053841283 3.6335303887065661e-05 1.4559000893790698e-05 -4.4603776970175047e-05 -195.53426569221713 5.8909957120767409e-10 1.0216916201954972e-10 4.7397113123182066e-07 7.7388404339067191e-05 -1.0752297410744947e-11 4.4193595847920514e-12 2.5099639235292525e-11 7.6857136553634583e-05 -45.197633928000002 -110.33371083599998 48.847122559999995 1069.0094105005942 0.0000000000000000 0.0000000000000000 0.0000000000000000 0.0000000000000000 3.0214392097557119 3.0429842437109329 1.0215451835419211 1.0107141671501396 473.65537506242623 473.57317589164478 1.0107151839654238 
-57.245822419228212 -98.855343302057989 45.053444635561966 -57.245822419228247 -98.855343302057946 45.053444635561974 -200.46062771276033 2.4140444234956091e-06 1.7385519543773384e-05 -3.7576542308042644e-05 -180.54714750892333 7.1520726493967679e-10 6.1742944090781280e-11 4.8206378155946084e-07 8.1248159871029831e-05 3.2553674893535787e-12 -1.5726201831923440e-12 1.5135265107068241e-11 9.0916140752996398e-05 -57.123633070400032 -98.831257531200038 46.226036100800002 1475.5774262919704 0.0000000000000000 0.0000000000000000 0.0000000000000000 0.0000000000000000 3.0214373038182747 3.0429804191844543 1.0215432649569502 1.0107141671501392 471.67712280741409 471.71456060117930 1.0107142350447544 
-60.267278971250498 -105.62034220429376 56.171185885755314 -60.267278971250477 -105.62034220429381 56.171185885755328 -133.41436386386528 8.4647760100906002e-06 8.1215871269146186e-05 -8.1548570811907790e-05 12.550333601204953 7.4709853234433677e-10 8.5482093625799381e-11 4.4799341858414726e-07 5.3901293401634115e-05 1.0064088994079428e-11 -3.0344581601292945e-11 5.5293610647790367e-11 0.00011150488160904906 -60.139641125599979 -105.58699381199996 57.260903223199996 1724.6135661994952 0.0000000000000000 0.0000000000000000 0.0000000000000000 0.0000000000000000 3.0214327757191333 3.0429713708383610 1.0215387448799702 1.0107141671501394 355.03016857877475 354.81265978251912 1.0107119991870233 
-19.460072361930802 -88.125450794725268 56.612650059965183 -19.460072361930802 -88.125450794725253 56.612650059965183 -160.90453449324698 -3.2458335113935459e-06 -2.0488099237092913e-05 -7.8743162371472863e-05 -166.08673791265079 3.1637699057784912e-10 2.4079141458521747e-11 4.4664055010024123e-07 6.4791802541200986e-05 -4.8229855674370195e-12 2.9733402121948774e-12 1.2908821330658587e-11 6.9213020113799965e-05 -19.406020858399991 -88.116056368799974 57.699076624800000 1439.6451283969650 0.0000000000000000 0.0000000000000000 0.0000000000000000 0.0000000000000000 3.0214332233270182 3.0429722269270942 1.0215391531774356 1.0107141671501396 415.90127601598221 416.15440746819883 1.0107122014276282 
-58.901712261690626 -178.72176384405466 77.826890941102121 -58.901712261690612 -178.72176384405472 77.826890941102121 -255.15076712016503 -4.9675125600324398e-06 -2.0706254833086444e-05 -3.0378618106867132e-05 -302.19820483039837 7.3268230024736692e-10 3.4203351262362958e-10 3.8162942228581192e-07 9.3171084957789928e-05 -6.8431606576448707e-13 6.5933175114908657e-12 2.5722995417881777e-11 0.00013815885102161205 -58.776536899199989 -178.58832514800000 78.755181813599989 1584.4809985467919 0.0000000000000000 0.0000000000000000 0.0000000000000000 0.0000000000000000 3.0217889864398950 3.0436872349359145 1.0218984059957603 1.0107141671501392 604.60966646227484 605.90038948822689 1.0108899963219782 
-74.616890737275867 -185.08496445216068 71.248439154015159 -74.616890737275867 -185.08496445216068 71.248439154015159 -246.66046181709859 5.6720091321578106e-05 -5.5502455095769763e-05 -2.7663099849706662e-06 -242.29436825278887 8.9855844639941118e-10 3.6437722283899632e-10 4.0178912219523971e-07 8.9009488741040627e-05 -3.8802440445000226e-11 2.8999190282653268e-11 1.1605737694543020e-12 7.9977928363096640e-05 -74.463376691600018 -184.94281327599995 72.225767276240006 1182.3928641350060 0.0000000000000000 0.0000000000000000 0.0000000000000000 0.0000000000000000 3.0215073717970165 3.0431201410366691 1.0216129165506231 1.0107141671501394 552.08338249727331 551.78986182686651 1.0107486829944621 
-69.881748619194894 -211.76714972483256 85.722835024026153 -69.881748619194909 -211.76714972483254 85.722835024026153 -261.26410529836738 6.2842632256245488e-06 6.9366402468867837e-06 -3.5016693640131916e-05 -272.11171030906934 8.4857653889769402e-10 4.5803380532838389e-10 3.5743227733142641e-07 9.3335149383379662e-05 -5.4818899058133362e-12 3.2486201417908870e-14 9.7823492668862134e-12 0.00010135139884991494 -69.736773305200003 -211.58846536000007 86.592267764799999 1391.6778601551057 0.0000000000000000 0.0000000000000000 0.0000000000000000 0.0000000000000000 3.0213902221962781 3.0428869378574785 1.0214968681417040 1.0107141671501392 611.78188301473710 612.01999164813083 1.0106913007453051 
-86.989669581958367 -207.44668540270146 89.466602367233136 -86.989669581958395 -207.44668540270143 89.466602367233151 -217.95825340619376 5.6129939082001313e-05 -2.9766099825781291e-05 -2.4661322689909393e-05 -244.50706794280009 1.0291573947218691e-09 4.4286127542925153e-10 3.4595948927851339e-07 7.7962869590761144e-05 -3.2893623271952318e-11 1.9146816911747781e-11 -5.2580051875338784e-14 8.4948161426176815e-05 -86.813844096400004 -207.27391660800001 90.308128229600001 1955.0875990986240 0.0000000000000000 0.0000000000000000 0.0000000000000000 0.0000000000000000 3.0216975333164977 3.0435034948025002 1.0218061172038981 1.0107141671501387 524.85706699400293 526.02407504287123 1.0108443352154697 
-74.526964790666938 -212.76539467960217 99.893280635525528 -74.526964790666938 -212.76539467960214 99.893280635525528 -218.40492421081541 -1.5489557790035681e-05 8.0334167863041430e-06 2.7261634900583562e-05 -251.09820369064610 8.9761103758134710e-10 4.6153494914769055e-10 3.1400688760285783e-07 7.6942708520137183e-05 5.3338531379005438e-12 -3.4686850616713704e-12 -4.6730505408004527e-12 8.5064329363465454e-05 -74.373612905599998 -212.58534351999998 100.65708370800000 988.41240310934302 0.0000000000000000 0.0000000000000000 0.0000000000000000 0.0000000000000000 3.0215333725627209 3.0431749405355739 1.0216417247737775 1.0107141671501383 576.67454172532700 576.92415158249707 1.0107630126068525 
-65.892506105368213 -185.80303298864575 107.30314998811043 -65.892506105368255 -185.80303298864581 107.30314998811043 -142.43144332787804 5.8014941071991266e-06 -5.3837762641228353e-05 -5.8203287368321127e-05 -2.5914736241944468e-20 8.0646523833993754e-10 3.6689626337071967e-10 2.9129932044291701e-07 5.4348516698757560e-05 -4.9343444888257964e-12 3.5713075905133742e-11 9.1479822647296929e-12 6.5965785660216672e-21 -65.754724465942374 -185.65989863464350 108.01171823852535 1808.0980320372519 0.0000000000000000 0.0000000000000000 0.0000000000000000 0.0000000000000000 3.0209364169992061 3.0419693351952297 1.0210330412095798 1.0105885224695637 368.75258982049894 365.02657950255701 1.0104616105898072 
-83.631126562995647 -208.53488519944045 108.32393356810785 -83.631126562995647 -208.53488519944042 108.32393356810783 -160.08011323561851 7.2988759834994511e-05 -5.0352890209242667e-05 -0.00010024594387460891 -155.59463714700451 9.9369617742595118e-10 4.4668821419513454e-10 2.8817112140977491e-07 5.8757891304930693e-05 -4.3947414693543840e-11 2.1916576181989976e-11 2.0146832330182596e-11 5.5043398828989848e-05 -83.461357431600007 -208.36062644399999 109.02489266960001 1287.0831768928649 0.0000000000000000 0.0000000000000000 0.0000000000000000 0.0000000000000000 3.0216693124994198 3.0434476477371031 1.0217784931714531 1.0107141671501381 414.36112543631549 419.61227344334577 1.0108306223398176 
-41.652911920409665 -130.11315633887762 64.728726881436046 -41.652911920409672 -130.11315633887762 64.728726881436046 -109.84740918766080 2.9213173779608314e-05 -4.1636497046858978e-06 -2.8548709359199728e-05 -122.04957313381732 5.5062139223127637e-10 1.7144774488997427e-10 4.2176880898914249e-07 4.4220619308429972e-05 -1.4134261640817299e-11 9.7836285144288862e-12 1.8095647177386131e-11 6.1032949234466638e-05 -41.558840772800004 -130.04627243999997 65.754654395919971 2180.9238908936368 0.0000000000000000 0.0000000000000000 0.0000000000000000 0.0000000000000000 3.0214653083130552 3.0430365648441251 1.0215714060479684 1.0107141671501390 331.03615979930697 333.76298860564782 1.0107281510193378 
-22.848259172202699 -134.51802969767377 54.806100750497507 -22.848259172202695 -134.51802969767377 54.806100750497521 -172.64712349554912 7.7726866953566964e-06 6.9866884563332990e-06 -8.8676453175431594e-06 -179.14605752849729 3.5213952934154413e-10 1.8691692638128640e-10 4.5217673272368586e-07 6.9163851558441209e-05 -1.5296655105764070e-12 -1.1181338296474983e-12 2.6587883247879300e-12 6.7714701089458904e-05 -22.788097858800000 -134.44511465599999 55.905993737599999 935.86986824075086 0.0000000000000000 0.0000000000000000 0.0000000000000000 0.0000000000000000 3.0214192413145566 3.0429441376349162 1.0215250456593747 1.0107141671501390 429.29530196629628 428.87486959723981 1.0107052268840626 
-11.064681760186483 -103.63306397136158 61.055332320998218 -11.064681760186486 -103.63306397136154 61.055332320998232 -159.67468396596598 -1.4574384127661758e-06 -2.4885240734144790e-05 -5.6289942896578716e-05 -143.44450948764143 2.2776400210311465e-10 7.8502232492283510e-11 4.3302593866201288e-07 6.3845137550857717e-05 -5.8257748873462164e-12 7.2426200026901926e-12 9.2278378411837692e-12 6.1115759784881752e-05 -11.025769398400001 -103.60243655599999 62.108642139439993 1284.9349949311236 0.0000000000000000 0.0000000000000000 0.0000000000000000 0.0000000000000000 3.0214285792812472 3.0429629331804389 1.0215345035524268 1.0107141671501394 422.93471354271975 422.71088050479761 1.0107099024470672 
-29.065627691767951 -140.84588754655249 69.077738278516264 -29.065627691767954 -140.84588754655249 69.077738278516264 -124.11416938711562 1.5468091393864839e-05 1.4742058697598664e-05 -3.8957033454882331e-05 -121.65267086449737 4.1776207840293900e-10 2.0910806419749411e-10 4.0844123971872648e-07 4.9038653110385632e-05 -5.8195873756352448e-12 2.2192142148398478e-12 2.0319754777033254e-11 7.4916645366017583e-05 -28.994254794799993 -140.76430841599998 70.071247290159988 2176.9829965296321 0.0000000000000000 0.0000000000000000 0.0000000000000000 0.0000000000000000 3.0214872996908357 3.0430809385433752 1.0215937894022309 1.0107141671501392 352.03612044177186 351.19012827530833 1.0107392138571090 
-103.61219303117237 -194.20856615129495 93.226920589995018 -103.61219303117240 -194.20856615129495 93.226920589995004 -153.33280815439377 4.7712074899930755e-06 -1.5178356637935830e-05 -5.1601798912784706e-05 -193.22835769188848 1.2045948370731363e-09 3.9641331883721870e-10 3.3443597091675770e-07 5.7258723771521753e-05 -4.8853502525128888e-12 5.7967315296726792e-12 1.2994842533283483e-11 5.3769366560187362e-05 -103.40639267600000 -194.05392295999994 94.040416199999996 2662.2783756828549 0.0000000000000000 0.0000000000000000 0.0000000000000000 0.0000000000000000 3.0214942615601994 3.0430960228273238 1.0216019158977871 1.0107141671501385 403.44618741482549 402.13857115575462 1.0107432817894468 
-82.676548596007208 -162.41249041118030 76.866443266300081 -82.676548596007237 -162.41249041118036 76.866443266300109 -173.78449135999327 -2.1124876449733132e-05 -1.5201489810586846e-05 -2.6180946368100567e-05 -198.11260375352356 9.8362137532226314e-10 2.8481944580605045e-10 3.8457272077963017e-07 6.6154069467211460e-05 9.6816544223964363e-12 4.6090798915517301e-12 2.2447334565866919e-11 0.00010050217269160274 -82.508500824799995 -162.30138233600007 77.801893530400037 2229.3857910936085 0.0000000000000000 0.0000000000000000 0.0000000000000000 0.0000000000000000 3.0217077158607135 3.0435238762178183 1.0218163155282616 1.0107141671501396 437.50116926812240 437.07619132022950 1.0108493763231285 
-28.060655888391526 -125.12211475073703 126.99764556570489 -28.060655888391548 -125.12211475073708 126.99764556570483 -13.467966983254524 2.6236494627570317e-06 -2.0849059989613562e-06 1.2622477151566688e-05 -1.9610664918290513e-20 4.0715477864217142e-10 1.5392601082631074e-10 2.3094545054114235e-07 6.2187573099222221e-06 -4.6077965595285999e-13 1.6818306696739752e-12 -5.0182598702622015e-12 4.9039253677689719e-21 -27.991095225219734 -125.06206457489009 127.55940664489751 1124.7619503421174 0.0000000000000000 0.0000000000000000 0.0000000000000000 0.0000000000000000 3.0211408464410421 3.0423815126435834 1.0212408014471981 1.0107468574541911 125.48016354536584 126.50609671093842 1.0105646425790686 