# For a description of the Tecplot format see the Tecplot User's guide.
#
Variables=x,y,z,s_u,s_v,s_w,s_p,mono_f_vel_u,mono_f_vel_v,mono_f_vel_w,const,u_nu,v_nu,w_nu,p_nu,x_nu,y_nu,z_nu,const,u_ref,v_ref,w_ref,vol_ref,x_ref,y_ref,z_ref,const,I1,I2,I3,J,p1,p2,p3
Zone f=fepoint, n=356, e=1130, et=brick, c=black
-65.8925 -97.5399 91.5475 -65.892506105368241 -97.539879188051188 91.547548405467566 -221.36238731177986 -7.2515957537976574e-15 3.8630922267420926e-15 5.3868638117151935e-14 4.0562660114153941e-29 8.0646523833993743e-10 5.7126525732087430e-11 3.3958241685283497e-07 -1.7212703948667486e-05 9.0230455275759565e-22 -3.2525004160311116e-21 2.2213194621159883e-21 -1.0193145716855485e-29 -65.754724465942431 -97.517594547729473 92.373562431030237 2074.8615187338191 0.0000000000000000 0.0000000000000000 0.0000000000000000 0.0000000000000000 3.0215306433238136 3.0431837617523496 1.0216533615326318 1.0107141671501390 426.43477161181056 317.14828463875364 1.0107685714726171 
-75.902937677356149 -130.62778827177442 77.957156967574392 -75.902937677356164 -130.62778827177448 77.957156967574377 -96.994568769886286 -1.3702257501938234e-14 -1.3440979415082960e-15 2.7647203702382171e-15 18.964550214194524 9.1212856365152639e-10 1.7324719436828670e-10 3.8123022538805174e-07 3.3528911869598468e-05 6.6857271137082293e-21 -4.3286116896135045e-21 2.1504824950335145e-22 0.00017846151802147685 -75.747104543999981 -130.56019973999997 78.884476808000016 2128.8259272129790 0.0000000000000000 0.0000000000000000 0.0000000000000000 0.0000000000000000 3.0214833404353238 3.0430870740463414 1.0216039401373840 1.0107141671501390 191.14774335327544 209.28361451553417 1.0107437888992001 
-63.555842751269914 -121.85018842560692 70.255903176231826 -63.555842751269907 -121.85018842560692 70.255903176231826 -17.973194025539804 9.2946810065271980e-15 4.1755997754519947e-15 -2.7025315381228983e-15 130.84914966216809 7.8180972459818143e-10 1.4244483370617900e-10 4.0483074559283239e-07 8.0715574009371619e-06 -5.1010571885867625e-21 1.9157538808862673e-21 -5.2820578813033982e-22 -0.00013471061957217155 -63.422274742800013 -121.79461816400000 71.240629883439979 1237.7701333319521 0.0000000000000000 0.0000000000000000 0.0000000000000000 0.0000000000000000 3.0215250589153837 3.0431434638627155 1.0216184851207324 1.0107141671501392 -19.881969896159898 -46.572395348406580 1.0107515780457408 
-56.272752767570985 -132.14921885914742 75.697250475554910 -56.272752767570985 -132.14921885914740 75.697250475554924 -62.617484289173646 1.3219038467942456e-14 -5.2932663067739344e-15 -4.9217701348543489e-15 -24.503867109856220 7.0493656398329385e-10 1.7859408396603271e-10 3.8815572289685463e-07 2.0719896315789150e-05 -4.2304159381245490e-21 6.8017027798763874e-22 6.1738123279717997e-21 0.00037910336251668848 -56.152318124399997 -132.07954718800002 76.641416164000006 2090.5778096190215 0.0000000000000000 0.0000000000000000 0.0000000000000000 0.0000000000000000 3.0210420237331310 3.0422164219019008 1.0211746903608694 1.0107141671501390 122.67410350783339 172.75558187577937 1.0105314954171425 
-123.13887791904891 -110.42733344599993 88.357633032386545 -123.13887791904889 -110.42733344599995 88.357633032386531 -276.36911460057291 -1.2952400427855798e-15 -6.0121309317903894e-16 2.3592282203018799e-15 -264.89421154358712 1.4107084077286112e-09 1.0235262637436904e-10 3.4935792769807955e-07 0.00010757513389891122 4.6331500828389034e-22 -8.4010689543944793e-22 2.4369435964682649e-21 0.00013175105251360511 -122.89786571200003 -110.38740333199999 89.207425400000020 2092.2379289329847 0.0000000000000000 0.0000000000000000 0.0000000000000000 0.0000000000000000 3.0215353009121806 3.0431768567934196 1.0216417030729554 1.0107141671501387 598.84772175889714 591.21170270856169 1.0107630297658694 
-123.01059646116234 -128.56888455338699 92.664251089799137 -123.01059646116234 -128.56888455338702 92.664251089799123 -254.57944277715808 -2.0422346298636922e-16 -3.5166612070095340e-15 -8.1715569523756266e-15 -414.08425272407288 1.4093548793281396e-09 1.6602250130226537e-10 3.3616028560778938e-07 0.00010123150748849398 -5.4182817609413528e-23 3.5237308055089050e-21 2.4357779924831260e-21 0.00012512096847359081 -122.76981557999994 -128.50411506799998 93.481940963999989 2295.0048277193882 0.0000000000000000 0.0000000000000000 0.0000000000000000 0.0000000000000000 3.0215108706993425 3.0431167657093119 1.0216059763022829 1.0107141671501390 672.22914656344813 654.78305340746078 1.0107453101677630 
-87.510710244163008 -119.60566763819980 107.30314998811043 -87.510710244162979 -119.60566763819985 107.30314998811039 -135.28163267379441 6.4167289376042987e-15 2.1475818623741595e-14 -1.9315360186365239e-14 6.0899992404041946e-30 1.0346542476946663e-09 1.3456888381391250e-10 2.9129932044291706e-07 3.0578335385476530e-05 -1.4635649182649079e-21 -1.2197723956531920e-20 1.7383104039083724e-21 -1.5316436646660379e-30 -87.333945182495114 -119.55317056945796 108.01171823852533 1853.2119812635015 0.0000000000000000 0.0000000000000000 0.0000000000000000 0.0000000000000000 3.0213316212183927 3.0428007252343154 1.0214694812624012 1.0107141671501390 331.75431074690283 391.14020524091762 1.0106777713584743 
-122.13601713198155 -119.00096045301017 106.32177380258710 -122.13601713198156 -119.00096045301017 106.32177380258712 -103.53188357795085 -2.5812892893647740e-15 8.2955672450278177e-16 -2.6521378303005650e-14 -78.783873756361217 1.4001231250782007e-09 1.3245091134983511e-10 2.9430675230202036e-07 3.8831296402016044e-05 -1.4756692556476789e-22 -9.2660731557618974e-22 7.0539234962083743e-21 -3.3209621996576366e-06 -121.89681335200000 -118.94929134799999 107.03765745040002 1571.7251237143605 0.0000000000000000 0.0000000000000000 0.0000000000000000 0.0000000000000000 3.0214474328198366 3.0429896063250150 1.0215422228474555 1.0107141671501394 226.20672141511801 227.23884338844414 1.0107138116246468 
-44.274301966573397 -163.73724453849712 123.05874645018599 -44.274301966573383 -163.73724453849715 123.05874645018596 -26.511983649255924 1.4577271340191781e-15 3.0771608963659319e-15 -1.9417265161029356e-15 0.0000000000000000 5.7829038432877233e-10 2.8946800512130721e-10 2.4301623291478336e-07 1.0845400106514325e-05 -5.1299609441445378e-22 -3.9306942224417427e-21 -1.6797830297795647e-21 0.0000000000000000 -44.175503749389662 -163.62432261291502 123.64986896362305 1288.7765825848380 0.0000000000000000 0.0000000000000000 0.0000000000000000 0.0000000000000000 3.0237845631459042 3.0477327920039139 1.0239485662792838 1.0116495165989248 116.15492235398392 343.43193113933899 1.0119034233699975 
-15.525183683109409 -143.95059854994622 135.56509065912599 -15.525183683109413 -143.95059854994628 135.56509065912593 -34.006163275229738 -1.2250861648277125e-16 -3.7539184729122776e-15 -3.2647913533854050e-15 57.587829365872864 2.7484386294629454e-10 2.2001206412269883e-10 2.0469047656845876e-07 1.0864272126067122e-05 -8.0436857896895826e-23 -2.6209453678241822e-22 3.7940029303730794e-21 5.9545647888179751e-05 -15.478227839600008 -143.86476845600004 136.06298808800005 1207.7015194609139 0.0000000000000000 0.0000000000000000 0.0000000000000000 0.0000000000000000 3.0211638553629423 3.0424271894810406 1.0212634490958938 1.0109363847425685 184.08704183195326 158.80979798478853 1.0105754931374551 
-44.274301966573397 -163.73724453849712 138.81434291226154 -44.274301966573383 -163.73724453849715 138.81434291226162 -58.727686830497177 3.0112938116347543e-15 -2.0336068705912403e-15 1.9899805362664682e-16 0.0000000000000000 5.7829038432877233e-10 2.8946800512130721e-10 1.9473314560869426e-07 2.6743508839740262e-05 -1.5589444426042804e-21 5.8179121288147897e-22 1.2154314680869453e-21 0.0000000000000000 -44.175503749389669 -163.62432261291511 139.28801968872074 2260.0113226803110 0.0000000000000000 0.0000000000000000 0.0000000000000000 0.0000000000000000 3.0211315208878808 3.0423653875736956 1.0212340086715488 1.0110574809976458 218.40613160141470 199.29634035905357 1.0105618814569410 
-5.9114931170987486 -161.56868203462972 129.88515900808810 -5.9114931170987477 -161.56868203462972 129.88515900808810 -140.05091055001773 6.5545016523471263e-15 -2.2862849818634311e-15 7.4685568671938559e-15 -225.13622657790359 1.7337176486109662e-10 2.8184438116696242e-10 2.2209665773154086e-07 5.5816854869355781e-05 -3.3610121937798942e-21 3.2689744903875667e-21 -4.9033211676223073e-21 2.9271435815330410e-05 -5.8818733370400009 -161.45872929999999 130.42539591680000 1840.5999298976626 0.0000000000000000 0.0000000000000000 0.0000000000000000 0.0000000000000000 3.0211428629265979 3.0423859756665625 1.0212432449288562 1.0107141671501381 373.49114620696560 340.44673920075462 1.0105658187038351 
-9.8173310646172744 -107.14440469926882 182.84362444745753 -9.8173310646172762 -107.14440469926879 182.84362444745756 -63.868482509569716 3.3864099102759028e-17 2.1432419049708695e-15 2.3358972007238052e-16 -69.500876080432718 2.1459789154021356e-10 9.0833396360068264e-11 5.9805232766052541e-08 2.6967389901103721e-05 1.7567902873559266e-22 -1.7678844067776318e-21 1.3783685250362049e-22 4.3186572830386664e-05 -9.7806680107999995 -107.10896956400003 182.98909712000000 1021.2952016557671 0.0000000000000000 0.0000000000000000 0.0000000000000000 0.0000000000000000 3.0214668530294024 3.0430394148755364 1.0215727092907481 1.0107141671501390 211.58569991573336 209.47661106452796 1.0107288068740239 
-17.616493761881443 -108.67476497314870 193.32658644484451 -17.616493761881440 -108.67476497314871 193.32658644484448 -72.079508664726518 -4.0023198849480203e-15 4.8148623639953997e-15 1.0817871331867589e-15 -89.690635670974501 2.9691636302398012e-10 9.6196800525305574e-11 2.7680151060138769e-08 2.9363211681123862e-05 1.1795682553584134e-21 -2.6544670461580398e-21 1.4017977340674070e-22 3.9544205540907299e-05 -17.565766725200003 -108.63723447200002 193.39391677600000 1230.2822850381203 0.0000000000000000 0.0000000000000000 0.0000000000000000 0.0000000000000000 3.0214604732189043 3.0430259836501592 1.0215656550227783 1.0107141671501378 247.85203823465446 246.05586792259706 1.0107252587463829 
-44.274301966573397 -119.60566763819980 170.32553583641268 -44.274301966573468 -119.60566763819968 170.32553583641297 -97.553317282817446 -2.1767463869664610e-15 3.1638425364437220e-15 4.3508672113634610e-15 0.0000000000000000 5.7829038432877223e-10 1.3456888381391252e-10 9.8166970108337637e-08 3.4244603872163082e-05 1.1558355318048343e-21 -1.9922309147288847e-21 -2.6560787278136522e-21 0.0000000000000000 -44.175503749389591 -119.55317056945772 170.56432113891603 1872.3464537223574 0.0000000000000000 0.0000000000000000 0.0000000000000000 0.0000000000000000 3.0213430126265246 3.0427957506227568 1.0214529134100856 1.0107141671501396 294.11838071333966 300.61245651503816 1.0106698521763973 
-9.3676921225663019 -124.45624693511617 188.76328209847156 -9.3676921225663019 -124.45624693511617 188.76328209847156 -78.216894939144638 2.2102105902043169e-15 -1.3278332647344402e-14 -5.4437073601777350e-15 -85.905565894659958 2.0985217036306736e-10 1.5158940769310902e-10 4.1664411698505432e-08 3.0071826654823628e-05 6.2911711514237640e-22 7.6665815315815903e-21 1.7292488046329281e-21 1.4714133907509979e-05 -9.3318398883999993 -124.39710846400000 188.86462832000004 1016.3527334425750 0.0000000000000000 0.0000000000000000 0.0000000000000000 0.0000000000000000 3.0214600428369462 3.0430247809981092 1.0215648807039390 1.0107141671501385 288.46511437142499 287.30785280331776 1.0107248311082067 
-44.274301966573397 -163.73724453849712 107.30314998811043 -44.274301966573383 -163.73724453849715 107.30314998811039 -85.177103565910201 -1.8123540253132338e-15 -1.0027765803211862e-14 -1.2338895517827760e-15 2.8036696337613004e-28 5.7829038432877244e-10 2.8946800512130721e-10 2.9129932044291706e-07 3.5820299322459450e-05 4.3901352768908951e-22 6.9041122266091896e-21 -6.3083882078061868e-22 -7.0523423264870684e-29 -44.175503749389662 -163.62432261291499 108.01171823852535 1450.3671205666894 0.0000000000000000 0.0000000000000000 0.0000000000000000 0.0000000000000000 3.0221210310914852 3.0443510833584644 1.0222302032728325 1.0112475316030747 10.981524737136404 161.94782319095168 1.0110532433713433 
-61.283124457213766 -161.06410774864068 85.128922886227699 -61.283124457213738 -161.06410774864068 85.128922886227684 -384.06903834401936 -1.2872031787091170e-14 -4.4589350323642644e-14 -8.6304765987629032e-15 107.57055139827163 7.5781854055878561e-10 2.8008564911807809e-10 3.5925231878231040e-07 0.00014264933833644828 6.6659766017735100e-21 3.1457308185900303e-20 9.3623609645286641e-21 4.6596683768025808e-05 -61.153654769600031 -160.95484587600001 86.002782780800032 1645.6757988676138 0.0000000000000000 0.0000000000000000 0.0000000000000000 0.0000000000000000 3.0174271757782649 3.0349355198676147 1.0175084695929590 1.0098320780794123 749.88934858578477 740.13109532814133 1.0087168709217882 
-44.331600048598759 -168.12053401978119 82.382054080297422 -44.331600048598752 -168.12053401978119 82.382054080297408 -771.78533543724893 1.8446153737273884e-14 -8.2134463171460013e-14 -1.2856281110242474e-14 -231.79028682815218 5.7889864776838884e-10 3.0484265112207249e-10 3.6767010658245169e-07 0.00030556668751167759 -9.9924679447436881e-21 5.4895241283601209e-20 1.5211024888917716e-20 0.00029398009267175314 -44.232698507600013 -168.00161050399998 83.276389748800028 1737.4139093181343 0.0000000000000000 0.0000000000000000 0.0000000000000000 0.0000000000000000 3.0218486074532005 3.0438059138845710 1.0219574593657030 1.0107141671501390 1419.5711061322584 1395.2353469386724 1.0109193306842741 
-44.274301966573397 -185.80303298864575 107.30314998811043 -44.274301966573383 -185.80303298864581 107.30314998811041 -734.23970696754452 3.6051385539134888e-15 -3.9017219247284003e-14 -5.3098212117856705e-14 2.2039625341836397e-29 5.7829038432877233e-10 3.6689626337071957e-10 2.9129932044291701e-07 0.00028955853446996436 -5.7865449946141493e-22 2.7843429751721871e-20 9.0464179206192471e-21 -5.5086868338747022e-30 -44.175503749389676 -185.65989863464350 108.01171823852533 1616.4576808433910 0.0000000000000000 0.0000000000000000 0.0000000000000000 0.0000000000000000 3.0205546606171079 3.0412072293878518 1.0206526981199078 1.0105319268183950 1438.9516604388939 1433.4386659397912 1.0102734823770776 
-87.510710244163008 -141.67145608834846 138.81434291226154 -87.510710244162979 -141.67145608834838 138.81434291226157 -85.879268584257673 1.7400320677109477e-15 -1.1914501130377715e-15 1.6604124197443957e-15 0.0000000000000000 1.0346542476946663e-09 2.1201135291804010e-10 1.9473314560869426e-07 3.7814869732466094e-05 -5.4056838940142905e-22 2.0596438673362111e-21 -1.7552167199991413e-21 0.0000000000000000 -87.333945182495100 -141.58874659118649 139.28801968872074 1877.7986991733408 0.0000000000000000 0.0000000000000000 0.0000000000000000 0.0000000000000000 3.0228087835381769 3.0457221770112195 1.0229133612851811 1.0112494664213987 288.93149997589194 290.49331537677898 1.0113924418956346 
-65.892506105368213 -163.73724453849712 138.81434291226154 -65.892506105368255 -163.73724453849715 138.81434291226165 -74.046637372664080 -1.7477461894773547e-15 6.3647750482648683e-15 7.9998148206000195e-15 1.6206794362342534e-29 8.0646523833993712e-10 2.8946800512130721e-10 1.9473314560869426e-07 3.8163804284483550e-05 5.3679161975571447e-22 -4.8534312491797991e-21 -1.7848133307494326e-22 -4.0730692358845037e-30 -65.754724465942374 -163.62432261291517 139.28801968872077 2018.1238718776010 0.0000000000000000 0.0000000000000000 0.0000000000000000 0.0000000000000000 3.0209335776824568 3.0419687468630334 1.0210352827164091 1.0112955785866862 230.50994344832483 227.28022808717404 1.0104635355903564 
-87.510710244163008 -163.73724453849712 123.05874645018599 -87.510710244162979 -163.73724453849715 123.05874645018595 -106.39902204119220 -7.6112305454609191e-15 -5.7448840678186529e-16 3.1685853389923502e-15 0.0000000000000000 1.0346542476946663e-09 2.8946800512130716e-10 2.4301623291478341e-07 5.9650302223639438e-05 1.0619422644150475e-21 -6.1196969326012100e-22 3.6959201141037228e-21 0.0000000000000000 -87.333945182495114 -163.62432261291505 123.64986896362312 1549.0027140339625 0.0000000000000000 0.0000000000000000 0.0000000000000000 0.0000000000000000 3.0221180309299269 3.0443507158768170 1.0222329271645441 1.0110009499115231 233.15638203557026 403.20332804197085 1.0110549487748912 
-87.510710244163008 -141.67145608834846 123.05874645018599 -87.510710244162979 -141.67145608834838 123.05874645018596 -66.222181244869091 -3.7126278519273869e-15 -2.0171217243284506e-15 8.0453923235742632e-15 0.0000000000000000 1.0346542476946663e-09 2.1201135291804007e-10 2.4301623291478336e-07 3.7718540013147704e-05 4.1867307721834098e-21 5.5131594437038686e-21 -3.4359181106914990e-21 0.0000000000000000 -87.333945182495086 -141.58874659118649 123.64986896362313 1389.1126189879024 0.0000000000000000 0.0000000000000000 0.0000000000000000 0.0000000000000000 3.0222817925714338 3.0446578149099817 1.0223757674740244 1.0114150297933673 199.67187767795050 366.82885755817000 1.0111273418350184 
-45.298278649877432 -110.37356733355848 47.694215994613280 -45.298278649877425 -110.37356733355848 47.694215994613280 -502.82108726515850 1.5798436389317574e-14 3.5315137378429981e-15 -1.7645544485661238e-14 -479.29942325806854 5.8909957120767399e-10 1.0216916201954974e-10 4.7397113123182061e-07 0.00020629245224650553 -5.9408460730635940e-21 3.3767028180175353e-21 1.0378032782535804e-20 0.00023817748367057801 -45.197633928000002 -110.33371083599998 48.847122559999995 1069.0094105005942 0.0000000000000000 0.0000000000000000 0.0000000000000000 0.0000000000000000 3.0214414252141517 3.0429884037028141 1.0215471262385678 1.0107141671501396 1070.6489976457704 1070.8356328478915 1.0107161431312228 
-57.245822419228212 -98.855343302057989 45.053444635561966 -57.245822419228247 -98.855343302057946 45.053444635561974 -416.91038589258795 4.2544849217718940e-15 2.4474389233833151e-15 -1.0115097885191048e-14 -232.49839412209286 7.1520726493967689e-10 6.1742944090781293e-11 4.8206378155946084e-07 0.00017203713194055445 -1.8499864167804578e-21 8.6537714541581220e-22 3.8374140980090175e-21 0.00016446041934819577 -57.123633070400032 -98.831257531200038 46.226036100800002 1475.5774262919704 0.0000000000000000 0.0000000000000000 0.0000000000000000 0.0000000000000000 3.0214369405645467 3.0429795957044523 1.0215428042904060 1.0107141671501392 810.69491118926567 811.13993985351397 1.0107140059613509 
-60.267278971250498 -105.62034220429376 56.171185885755314 -60.267278971250477 -105.62034220429381 56.171185885755328 -281.34094260564092 2.1444585221622887e-15 1.4695483265153327e-14 -1.4974476144664355e-14 -16.638070580181161 7.4709853234433687e-10 8.5482093625799406e-11 4.4799341858414715e-07 0.00011523866568566498 1.5430560135991772e-21 -6.4527393806402802e-21 1.1101553230401983e-20 0.00019021916797774661 -60.139641125599979 -105.58699381199996 57.260903223199996 1724.6135661994952 0.0000000000000000 0.0000000000000000 0.0000000000000000 0.0000000000000000 3.0214336749663953 3.0429741257713085 1.0215406067269073 1.0107141671501394 636.77604823637216 634.18324973809626 1.0107129272234230 
-19.460072361930802 -88.125450794725268 56.612650059965183 -19.460072361930802 -88.125450794725253 56.612650059965183 -376.76246135415954 -8.0630539729248523e-16 -6.6726297886871814e-15 -2.7020027284546836e-14 -377.91200800963094 3.1637699057784912e-10 2.4079141458521750e-11 4.4664055010024128e-07 0.00015528576041373574 -1.9179439079167994e-21 1.7375362499949662e-21 5.3151746063317701e-21 0.00017534659850110653 -19.406020858399991 -88.116056368799974 57.699076624800000 1439.6451283969650 0.0000000000000000 0.0000000000000000 0.0000000000000000 0.0000000000000000 3.0214252860865374 3.0429564303038035 1.0215312953607776 1.0107141671501396 795.17340484380850 795.52169823272914 1.0107083203559031 
-58.901712261690626 -178.72176384405466 77.826890941102121 -58.901712261690612 -178.72176384405472 77.826890941102121 -1542.3475116602826 5.8023803212145667e-15 -3.7475444690906426e-14 -3.7473881339808126e-14 -1714.2053803959743 7.3268230024736702e-10 3.4203351262362963e-10 3.8162942228581187e-07 0.00056140528940022325 -8.2689280785663374e-21 1.2526705224291902e-20 3.0214710298259695e-20 0.0010892146976220170 -58.776536899199989 -178.58832514800000 78.755181813599989 1584.4809985467919 0.0000000000000000 0.0000000000000000 0.0000000000000000 0.0000000000000000 3.0222024257547271 3.0445174785265370 1.0223152170748302 1.0107141671501392 2996.7064966074322 3004.0014166525821 1.0110964932790230 
-74.616890737275867 -185.08496445216068 71.248439154015159 -74.616890737275867 -185.08496445216068 71.248439154015159 -1193.6299800653246 8.4828043465874109e-14 -6.4651339842066796e-14 1.5887411866439106e-15 -1215.0719897702616 8.9855844639941118e-10 3.6437722283899632e-10 4.0178912219523960e-07 0.00040826901838597764 -5.6317362667543775e-20 3.3681909609598963e-20 -3.6415227558003486e-21 0.00038304804081866565 -74.463376691600018 -184.94281327599995 72.225767276240006 1182.3928641350060 0.0000000000000000 0.0000000000000000 0.0000000000000000 0.0000000000000000 3.0217368016658486 3.0435802319731891 1.0218435774563133 1.0107141671501394 2236.9034537424604 2235.5325671812252 1.0108628168216143 
-69.881748619194894 -211.76714972483256 85.722835024026153 -69.881748619194909 -211.76714972483254 85.722835024026153 -1563.2499551332846 6.1729923127145387e-15 8.6566867473368873e-15 -4.4262220131536046e-14 -1643.2409578414286 8.4857653889769402e-10 4.5803380532838384e-10 3.5743227733142652e-07 0.00054953296553660470 -8.1032001055494739e-21 1.8532769009511074e-21 5.0611064527125245e-21 0.00064273258770274511 -69.736773305200003 -211.58846536000007 86.592267764799999 1391.6778601551057 0.0000000000000000 0.0000000000000000 0.0000000000000000 0.0000000000000000 3.0211868291791295 3.0424793011479880 1.0212926256709804 1.0107141671501392 3166.2028156090641 3167.3160389195550 1.0105902808590483 
-86.989669581958367 -207.44668540270146 89.466602367233136 -86.989669581958395 -207.44668540270143 89.466602367233151 -983.44427118424130 7.3879143261061607e-14 -3.7349242673412075e-14 -3.0408677926267201e-14 -1063.9591631031778 1.0291573947218691e-09 4.4286127542925163e-10 3.4595948927851339e-07 0.00034121067031898597 -4.4869914001013104e-20 2.5636305977839172e-20 1.0637770535905398e-21 0.00041734666408109927 -86.813844096400004 -207.27391660800001 90.308128229600001 1955.0875990986240 0.0000000000000000 0.0000000000000000 0.0000000000000000 0.0000000000000000 3.0219995064210012 3.0441105102272177 1.0221111695076783 1.0107141671501387 1867.7214344902895 1873.5935851803563 1.0109955626539564 
-74.526964790666938 -212.76539467960217 99.893280635525528 -74.526964790666938 -212.76539467960214 99.893280635525528 -1152.3884860710036 -1.1415341493769011e-14 6.6685164103183491e-15 6.9334034835183650e-15 -1384.8994103271111 8.9761103758134751e-10 4.6153494914769045e-10 3.1400688760285789e-07 0.00041408010213594786 3.9272738993639224e-21 -3.6434403497995826e-21 2.2487671559462685e-23 0.00046977296273259148 -74.373612905599998 -212.58534351999998 100.65708370800000 988.41240310934302 0.0000000000000000 0.0000000000000000 0.0000000000000000 0.0000000000000000 3.0214486968545882 3.0430057821569605 1.0215572472660455 1.0107141671501383 2609.9247246097025 2611.0008658476913 1.0107214695864766 
-65.892506105368213 -185.80303298864575 107.30314998811043 -65.892506105368255 -185.80303298864581 107.30314998811043 -617.63371198146581 1.7344532419337906e-14 -4.1895292811584371e-14 -2.7406332164173179e-14 2.0794395275962479e-29 8.0646523833993733e-10 3.6689626337071957e-10 2.9129932044291706e-07 0.00023180949170004540 -1.3532055460278643e-20 2.9579405548062956e-20 6.0849447911727403e-21 -5.1879583148914551e-30 -65.754724465942374 -185.65989863464350 108.01171823852535 1808.0980320372519 0.0000000000000000 0.0000000000000000 0.0000000000000000 0.0000000000000000 3.0209250281806241 3.0419429411211349 1.0210180136251898 1.0105720090107899 1132.3838755416284 1112.8657172155647 1.0104534561465710 
-83.631126562995647 -208.53488519944045 108.32393356810785 -83.631126562995647 -208.53488519944042 108.32393356810783 -649.19461170323370 6.9686765980711258e-14 -4.7021997808499394e-14 -6.1174379295638164e-14 -550.50741827596130 9.9369617742595118e-10 4.4668821419513444e-10 2.8817112140977486e-07 0.00023945596281396245 -4.6798254812017427e-20 2.5061725772814436e-20 1.3892545950045192e-20 0.00016677722937301573 -83.461357431600007 -208.36062644399999 109.02489266960001 1287.0831768928649 0.0000000000000000 0.0000000000000000 0.0000000000000000 0.0000000000000000 3.0218224992723708 3.0437563914571304 1.0219340579837082 1.0107141671501381 1208.6170933081228 1237.0816169755035 1.0109075504597467 
-41.652911920409665 -130.11315633887762 64.728726881436046 -41.652911920409672 -130.11315633887762 64.728726881436046 -259.67143069883866 1.0604283750597348e-14 -6.3224426550058736e-15 -6.0913790179307446e-15 -354.99937215716216 5.5062139223127637e-10 1.7144774488997427e-10 4.2176880898914249e-07 0.00010659856526532319 -6.8557400936217272e-21 5.8075481580404408e-21 4.0366914096325265e-21 0.00013066873343895431 -41.558840772800004 -130.04627243999997 65.754654395919971 2180.9238908936368 0.0000000000000000 0.0000000000000000 0.0000000000000000 0.0000000000000000 3.0215109387282650 3.0431251917016273 1.0216143847536274 1.0107141671501390 642.02829871786275 643.96096680922994 1.0107493610783658 
-22.848259172202699 -134.51802969767377 54.806100750497507 -22.848259172202695 -134.51802969767377 54.806100750497521 -463.83398124952208 1.4605357974639591e-15 -3.7011094505127509e-15 5.4030537376199264e-15 -525.81076757386825 3.5213952934154413e-10 1.8691692638128643e-10 4.5217673272368581e-07 0.00019084636012192032 -1.1891522616071173e-21 6.2554918419884423e-22 -4.3209036531279475e-21 0.00016528113129162038 -22.788097858800000 -134.44511465599999 55.905993737599999 935.86986824075086 0.0000000000000000 0.0000000000000000 0.0000000000000000 0.0000000000000000 3.0213757297037676 3.0428575417403638 1.0214819664644121 1.0107141671501390 968.77325004106456 968.31607728677500 1.0106839717447922 
-11.064681760186483 -103.63306397136158 61.055332320998218 -11.064681760186486 -103.63306397136154 61.055332320998232 -407.68102036449636 4.3507479335469075e-15 -1.6444590084728383e-14 -1.8932280185321527e-14 -325.14878748417800 2.2776400210311470e-10 7.8502232492283510e-11 4.3302593866201288e-07 0.00016633797356028351 -4.1913536642681484e-21 7.1018642043601362e-21 2.4662561909999634e-21 0.00013237286423690764 -11.025769398400001 -103.60243655599999 62.108642139439993 1284.9349949311236 0.0000000000000000 0.0000000000000000 0.0000000000000000 0.0000000000000000 3.0214146199260985 3.0429358222797380 1.0215213579209013 1.0107141671501394 876.56914502408461 875.24716270702459 1.0107034199716092 
-29.065627691767951 -140.84588754655249 69.077738278516264 -29.065627691767954 -140.84588754655249 69.077738278516264 -311.18756110996878 1.2195162050834818e-15 1.0081377264553342e-14 -1.8616417071337877e-14 -263.25369304861465 4.1776207840293900e-10 2.0910806419749406e-10 4.0844123971872648e-07 0.00012535115919502305 1.7542423690596329e-21 -6.3732301564693933e-22 9.7463885589847624e-21 0.00026948982960854346 -28.994254794799993 -140.76430841599998 70.071247290159988 2176.9829965296321 0.0000000000000000 0.0000000000000000 0.0000000000000000 0.0000000000000000 3.0216102219900125 3.0433259998326969 1.0217159149349826 1.0107141671501392 723.24377347066002 726.77226749591091 1.0107994388904089 
-103.61219303117237 -194.20856615129495 93.226920589995018 -103.61219303117240 -194.20856615129495 93.226920589995004 -355.80844300600808 -5.5973677119224021e-15 -1.3288177287323672e-15 -1.5985578541333286e-14 -503.68003806519971 1.2045948370731363e-09 3.9641331883721870e-10 3.3443597091675770e-07 0.00013303486733322998 2.5673283309574734e-21 1.1016504158383730e-22 7.1739252284860523e-21 0.00011758941298475872 -103.40639267600000 -194.05392295999994 94.040416199999996 2662.2783756828549 0.0000000000000000 0.0000000000000000 0.0000000000000000 0.0000000000000000 3.0214132242500766 3.0429335821309649 1.0215205100625668 1.0107141671501385 669.62963271418289 663.92913734876686 1.0107030767319023 
-82.676548596007208 -162.41249041118030 76.866443266300081 -82.676548596007237 -162.41249041118036 76.866443266300109 -435.29198547845886 4.4440179517338204e-15 -1.3985616106390885e-15 -2.2294660320783328e-16 -511.43222319764084 9.8362137532226335e-10 2.8481944580605045e-10 3.8457272077963006e-07 0.00017114783925965431 -1.5825613216390058e-21 3.8617928039728791e-22 9.4907160180939643e-22 0.00010962636868512954 -82.508500824799995 -162.30138233600007 77.801893530400037 2229.3857910936085 0.0000000000000000 0.0000000000000000 0.0000000000000000 0.0000000000000000 3.0220134720957001 3.0441359869369564 1.0221226588694388 1.0107141671501396 884.18259532857667 883.54120529082275 1.0110010433189986 
-28.060655888391526 -125.12211475073703 126.99764556570489 -28.060655888391548 -125.12211475073708 126.99764556570483 -17.473755902335242 -8.1506585114513968e-16 -2.5493436722653942e-15 1.8229647846656755e-15 -8.7518388112436583e-30 4.0715477864217137e-10 1.5392601082631074e-10 2.3094545054114232e-07 1.3018748681055438e-05 -1.3820348402009459e-21 4.8689066455410013e-21 -7.0754177238212263e-21 2.1927151699217367e-30 -27.991095225219734 -125.06206457489009 127.55940664489751 1124.7619503421174 0.0000000000000000 0.0000000000000000 0.0000000000000000 0.0000000000000000 3.0201402116698226 3.0403665169521905 1.0202264693012504 1.0107898742685590 38.593460529193990 44.157906510937750 1.0100640440855597 