# For a description of the Tecplot format see the Tecplot User's guide.
#
Variables=x,y,z,s_u,s_v,s_w,s_p,mono_f_vel_u,mono_f_vel_v,mono_f_vel_w,const,u_nu,v_nu,w_nu,p_nu,x_nu,y_nu,z_nu,const,u_ref,v_ref,w_ref,vol_ref,x_ref,y_ref,z_ref,const,I1,I2,I3,J,p1,p2,p3
Zone f=fepoint, n=356, e=1130, et=brick, c=black
-66.2715 -97.6011 89.2262 -66.271487219741161 -97.601075339233986 89.226234136929776 -81.254227350146337 -2.8558119078538074e-06 3.9392275428565372e-06 -3.9327072738480003e-06 -5.2883156590588164e-21 1.1474113306708668e-07 8.1236485871549746e-09 4.8589383260022594e-05 0.0015436289774532833 5.7202381335941322e-11 -8.8964183056410151e-11 4.9651454019306276e-11 1.0044371912862169e-21 -65.754724465942431 -97.517594547729473 92.373562431030237 2074.8615187338191 0.0000000000000000 0.0000000000000000 0.0000000000000000 0.0000000000000000 3.0818965031896979 3.1653191669511886 1.0834307863962709 1.0409042452268740 606.33864310401202 608.35416730230997 1.0408798166708697 
-76.331571091660535 -130.81339404996848 75.351147008346757 -76.331571091660550 -130.81339404996851 75.351147008346757 -83.650043433931373 -1.0824451891964320e-05 3.7292940265787412e-07 -1.7068849465897124e-07 -74.463621528462454 1.2977396843250055e-07 2.4638726003889388e-08 5.4548588443559247e-05 0.0015661088413623302 2.0223822568918132e-10 -3.9883548019007027e-12 1.0717430690198153e-11 0.0015244020118588967 -75.747104543999981 -130.56019973999997 78.884476808000016 2128.8259272129790 0.0000000000000000 0.0000000000000000 0.0000000000000000 0.0000000000000000 3.0819284182830624 3.1653845310269966 1.0834642506942771 1.0409042452268746 613.56078857587295 609.89372151234795 1.0408958924780571 
-63.923233884845125 -122.00279067008864 67.488564989092296 -63.923233884845118 -122.00279067008864 67.488564989092296 -81.173055036042626 2.6720255565407737e-06 1.9017839927541930e-06 -5.1370010008677566e-07 -75.903358345298429 1.1123212576014119e-07 2.0257584110172647e-08 5.7925485404730643e-05 0.0015698832732489740 -5.9183376611275079e-11 -1.0471876577180832e-10 7.3728407288867307e-11 0.0013721857702244170 -63.422274742800013 -121.79461816400000 71.240629883439979 1237.7701333319521 0.0000000000000000 0.0000000000000000 0.0000000000000000 0.0000000000000000 3.0819822614189678 3.1654920311099586 1.0835178972797328 1.0409042452268757 603.65723173364916 603.77139029456066 1.0409216514782023 
-56.604019367883303 -132.34054517445429 73.043899301574172 -56.604019367883318 -132.34054517445429 73.043899301574157 -73.844969266215401 7.0569200699855991e-06 2.6126266786478360e-06 -5.0644895007786740e-06 -76.307898267560716 1.0029498190289310e-07 2.5398127101450285e-08 5.5539527262560277e-05 0.0014564485567403161 -8.6734775405804512e-11 -5.2085498916664403e-13 1.3284784347307960e-10 0.0017494654567535223 -56.152318124399997 -132.07954718800002 76.641416164000006 2090.5778096190215 0.0000000000000000 0.0000000000000000 0.0000000000000000 0.0000000000000000 3.0818721403191840 3.1652715326785059 1.0834075328072221 1.0409042452268740 594.83230678818495 591.33487005815380 1.0408686607432482 
-123.80180423626734 -110.53698607031012 85.969495437638358 -123.80180423626734 -110.53698607031012 85.969495437638344 -100.57971273951284 -6.8961627255470460e-07 1.5801704177290310e-06 -9.5151350105775023e-06 -104.17993218821906 2.0070898351653982e-07 1.4556126803899616e-08 4.9988118558275119e-05 0.0017287429155801409 -1.3204433763310269e-11 -4.5771543422243720e-11 6.1329360619807146e-11 0.0017483713203996418 -122.89786571200003 -110.38740333199999 89.207425400000020 2092.2379289329847 0.0000000000000000 0.0000000000000000 0.0000000000000000 0.0000000000000000 3.0819580457489506 3.1654437159264357 1.0834938026928043 1.0409042452268746 648.00973241234897 647.09307091731546 1.0409100840432430 
-123.67288649518191 -128.74674891029608 90.366329851805318 -123.67288649518193 -128.74674891029605 90.366329851805332 -97.147951538233443 -8.0536212395262945e-07 -3.7405352187658981e-08 -7.7015637423538676e-06 -102.11937981345608 2.0051634694318030e-07 2.3611059829509177e-08 4.8099724042849346e-05 0.0016827714402086625 -4.4578807500246712e-12 -2.1284528192126743e-11 2.1528412536582670e-11 0.0015928008388068167 -122.76981557999994 -128.50411506799998 93.481940963999989 2295.0048277193882 0.0000000000000000 0.0000000000000000 0.0000000000000000 0.0000000000000000 3.0819726152024454 3.1654723314513427 1.0835078430113048 1.0409042452268746 639.34147176264446 640.23141452198740 1.0409168222334839 
-87.996918858984799 -119.74983054632838 105.31188889687098 -87.996918858984813 -119.74983054632834 105.31188889687105 -84.395605323634612 -5.4725910376952119e-06 3.1045106735555694e-07 -6.6085405143081774e-06 -1.3379392902858807e-20 1.4720556437697319e-07 1.9137285922621313e-08 4.1680762332241272e-05 0.0015467172361398980 1.2458728680059361e-10 -1.1090411720243278e-11 4.4841549269160164e-11 2.6874641390511936e-21 -87.333945182495114 -119.55317056945796 108.01171823852533 1853.2119812635015 0.0000000000000000 0.0000000000000000 0.0000000000000000 0.0000000000000000 3.0818879807686463 3.1653045869832259 1.0834247540051682 1.0409042452268742 615.98913795512783 614.74237226386117 1.0408769227955796 
-122.79396920366113 -119.14284967877428 104.30995454183203 -122.79396920366115 -119.14284967877428 104.30995454183201 -90.092600627888459 -4.3503992925123131e-07 1.2359579186005289e-06 -4.3973697452761093e-06 -88.633241900172635 1.9920297131270639e-07 1.8835463355681981e-08 4.2111082693807582e-05 0.0016009839327115701 -9.8480711236583283e-13 -3.1924574508222484e-11 4.2902042901362232e-11 0.0016040419079728261 -121.89681335200000 -118.94929134799999 107.03765745040002 1571.7251237143605 0.0000000000000000 0.0000000000000000 0.0000000000000000 0.0000000000000000 3.0819451057296132 3.1654152965539732 1.0834782987471927 1.0409042452268742 625.80577076217753 628.62298842514929 1.0409026371962486 
-44.546055580497523 -164.04734096051718 121.39753842897767 -44.546055580497523 -164.04734096051712 121.39753842897770 -65.577213530258106 1.0622711814113250e-05 -1.2033578176547112e-05 5.2190023613569904e-06 0.0000000000000000 8.2276701590666690e-08 4.1164575581564839e-08 3.4772143661321309e-05 0.0012961885007250996 -2.4528897611278589e-10 2.6950879153031579e-10 1.5471074809047555e-13 0.0000000000000000 -44.175503749389662 -163.62432261291502 123.64986896362305 1288.7765825848380 0.0000000000000000 0.0000000000000000 0.0000000000000000 0.0000000000000000 3.0816242595977670 3.1647560628145395 1.0831397229608950 1.0409267116813863 575.18273366131689 578.75111598415981 1.0407400367022672 
-15.654340063986250 -144.18629772791527 134.16586937456469 -15.654340063986247 -144.18629772791525 134.16586937456466 -65.716444459673596 2.6900405552975816e-06 -8.1146992266243217e-06 3.6203089651670248e-06 -66.497225458541067 3.9103661420014646e-08 3.1288516499916597e-08 2.9288278709849180e-05 0.0012916390696620429 -3.7321412531960454e-11 1.8908463367566355e-10 -3.2553259951701901e-11 0.0012616214975955538 -15.478227839600008 -143.86476845600004 136.06298808800005 1207.7015194609139 0.0000000000000000 0.0000000000000000 0.0000000000000000 0.0000000000000000 3.0815040021737854 3.1645206909388701 1.0830247090911433 1.0408629172183550 581.58784030518098 582.62745854920308 1.0406847538173634 
-44.546055580497523 -164.04734096051718 137.48318796108433 -44.546055580497523 -164.04734096051720 137.48318796108435 -77.030440822877779 1.1568589466207369e-06 -5.9100649089932839e-06 5.1812121631405429e-06 0.0000000000000000 8.2276701590666677e-08 4.1164575581564833e-08 2.7863524962867807e-05 0.0014314618523756989 -3.0241797240573572e-11 1.6316924363486319e-10 -6.7109028420676965e-11 0.0000000000000000 -44.175503749389669 -163.62432261291511 139.28801968872074 2260.0113226803110 0.0000000000000000 0.0000000000000000 0.0000000000000000 0.0000000000000000 3.0818483479625667 3.1652205123499750 1.0833802632707661 1.0408752858576849 604.19690626840031 602.98158291533287 1.0408555448049130 
-5.9929650556017720 -161.87062472135105 128.36695277214747 -5.9929650556017720 -161.87062472135102 128.36695277214747 -84.051640089139667 7.3799942513680300e-06 -6.2540207385940642e-06 3.4240020507166727e-06 -88.109044004556381 2.4666618136937043e-08 4.0082186958390054e-08 3.1778852886965574e-05 0.0014972775510028438 -1.3849353190117190e-10 1.5940812091661729e-10 -4.3345569363418182e-11 0.0014741965659958224 -5.8818733370400009 -161.45872929999999 130.42539591680000 1840.5999298976626 0.0000000000000000 0.0000000000000000 0.0000000000000000 0.0000000000000000 3.0820252810654982 3.1655814036128054 1.0835642865357613 1.0409042452268726 617.06235858625746 616.60437663896687 1.0409439395808258 
-9.9181761775792712 -107.24171360189348 182.43480839832924 -9.9181761775792712 -107.24171360189348 182.43480839832927 -91.690438531368258 -1.7488417116673566e-06 8.2952182897112777e-07 3.6959127703032497e-06 -92.510538729957844 3.0532082209711042e-08 1.2917525105127226e-08 8.5572729187077812e-06 0.0014929525341009510 -5.0554683260227744e-12 -3.3815325531233932e-11 -4.5445306835445425e-12 0.0015289486286762892 -9.7806680107999995 -107.10896956400003 182.98909712000000 1021.2952016557671 0.0000000000000000 0.0000000000000000 0.0000000000000000 0.0000000000000000 3.0819447606182981 3.1654167225265164 1.0834800911456677 1.0409042452268742 629.32455470296338 629.06226480602515 1.0409034969094320 
-17.756023157601259 -108.77782798826154 193.13737070082590 -17.756023157601255 -108.77782798826152 193.13737070082587 -95.286665470894960 -2.7769129997340526e-06 9.7319208040954818e-07 1.8116499279774304e-06 -97.085590438121486 4.2244218803610956e-08 1.3681376309637727e-08 3.9606340411779675e-06 0.0014812017062942858 -1.9414126307534612e-11 -3.5870224880316919e-11 1.0490283805070087e-11 0.0015279410176302578 -17.565766725200003 -108.63723447200002 193.39391677600000 1230.2822850381203 0.0000000000000000 0.0000000000000000 0.0000000000000000 0.0000000000000000 3.0819415968170607 3.1654102795210695 1.0834768109484829 1.0409042452268733 637.44383263154305 637.21650078595962 1.0409019207617296 
-44.546055580497523 -119.74983054632838 169.65448702529773 -44.546055580497523 -119.74983054632851 169.65448702529784 -92.112926157839055 5.8485005440917270e-07 2.8282712839858038e-06 5.5885027645613247e-06 0.0000000000000000 8.2276701590666703e-08 1.9137285922621317e-08 1.4046287620139711e-05 0.0014906937858277449 -1.1539154590077099e-12 -5.7060092328651694e-11 2.7775050141490238e-11 0.0000000000000000 -44.175503749389591 -119.55317056945772 170.56432113891603 1872.3464537223574 0.0000000000000000 0.0000000000000000 0.0000000000000000 0.0000000000000000 3.0819690314025592 3.1654657440194356 1.0835048446524964 1.0409042452268733 629.93888985756166 630.75874273294130 1.0409153934397268 
-9.4663070012520834 -124.61864788783048 188.47847285454122 -9.4663070012520816 -124.61864788783046 188.47847285454122 -92.786481384076950 -1.4814519653642954e-06 -1.2347673900612321e-06 2.6441258880297162e-06 -92.811964192397028 2.9856851366250048e-08 2.1558338725302658e-08 5.9615820608982517e-06 0.0014847177232661217 -1.8311569021673822e-11 2.1202017746248944e-11 -1.1737918671225111e-11 0.0015015140981100190 -9.3318398883999993 -124.39710846400000 188.86462832000004 1016.3527334425750 0.0000000000000000 0.0000000000000000 0.0000000000000000 0.0000000000000000 3.0819399857484058 3.1654070251172679 1.0834751673795973 1.0409042452268733 631.84447630584293 631.71079667756032 1.0409011308136638 
-44.546055580497523 -164.04734096051718 105.31188889687098 -44.546055580497523 -164.04734096051712 105.31188889687104 -74.614775949024022 3.5526308214975636e-06 -1.6289890867286146e-05 -1.4205163976701148e-05 8.9328169546455216e-20 8.2276701590666677e-08 4.1164575581564833e-08 4.1680762332241279e-05 0.0013947655239255165 -7.2526996196660851e-11 3.4385433751783726e-10 6.1278443974765292e-11 -1.7966432387181564e-20 -44.175503749389662 -163.62432261291499 108.01171823852535 1450.3671205666894 0.0000000000000000 0.0000000000000000 0.0000000000000000 0.0000000000000000 3.0822994970646680 3.1661474839565980 1.0838562940176037 1.0410224386183395 599.93229816656503 612.71626287653282 1.0410841798919284 
-61.639242781061988 -161.36415324994118 82.673149280456684 -61.639242781061981 -161.36415324994127 82.673149280456698 -91.721890349075665 -5.1041618290582628e-06 -1.4559164169828770e-05 -3.6760835385471105e-06 -93.907480493379424 1.0781914591695416e-07 3.9830318321332214e-08 5.1403864850918524e-05 0.0015582480988184113 9.2120259248601122e-11 2.8529226414840868e-10 1.2278867141315843e-10 0.0016999347745951035 -61.153654769600031 -160.95484587600001 86.002782780800032 1645.6757988676138 0.0000000000000000 0.0000000000000000 0.0000000000000000 0.0000000000000000 3.0816741226761049 3.1648762354931832 1.0832102791009786 1.0408419758313021 632.24388962048420 630.77775415773374 1.0407738854650161 
-44.603637864211272 -168.44711148954798 79.868738223774272 -44.603637864211272 -168.44711148954792 79.868738223774258 -99.104062443327777 3.6750837692161841e-07 -1.4394539294330890e-05 -2.3142702138442660e-06 -89.761505559825835 8.2362749814768321e-08 4.3352402057106332e-08 5.2608330147307931e-05 0.0016300738456546096 -4.0634871202803938e-13 2.9309534465002686e-10 8.4096267068236800e-11 0.0016441889015719501 -44.232698507600013 -168.00161050399998 83.276389748800028 1737.4139093181343 0.0000000000000000 0.0000000000000000 0.0000000000000000 0.0000000000000000 3.0819389588346278 3.1654024157072276 1.0834715611982837 1.0409042452268740 642.24044411495254 639.54598107102152 1.0408994015034734 
-44.546055580497523 -186.19609616761156 105.31188889687098 -44.546055580497523 -186.19609616761142 105.31188889687105 -102.08516184439414 -3.6868224956733202e-07 -7.3413997944796134e-06 -6.3906445614847845e-06 -6.0875697716380882e-21 8.2276701590666703e-08 5.2178213250098082e-08 4.1680762332241266e-05 0.0016616649457517005 1.8608204444490308e-11 1.7173568025787137e-10 5.7679222809696583e-12 1.2333362151352013e-21 -44.175503749389676 -185.65989863464350 108.01171823852533 1616.4576808433910 0.0000000000000000 0.0000000000000000 0.0000000000000000 0.0000000000000000 3.0818554526490978 3.1652346351093881 1.0833872721954159 1.0408862123809739 648.42520161719108 648.17851399820961 1.0408589072225967 
-87.996918858984799 -141.89858575342279 137.48318796108433 -87.996918858984813 -141.89858575342271 137.48318796108430 -86.223791018622151 -2.4483325634153113e-06 -1.8809989799474119e-06 2.5800086672708325e-06 0.0000000000000000 1.4720556437697316e-07 3.0150937913031584e-08 2.7863524962867814e-05 0.0015280606026396187 5.5714179795549248e-11 4.3475326966166211e-11 -1.3827491705082679e-11 0.0000000000000000 -87.333945182495100 -141.58874659118649 139.28801968872074 1877.7986991733408 0.0000000000000000 0.0000000000000000 0.0000000000000000 0.0000000000000000 3.0817248569954487 3.1649670624681976 1.0832502603640353 1.0407973988478674 619.97731818890645 619.67350629329985 1.0407930452823855 
-66.271487219741161 -164.04734096051718 137.48318796108433 -66.271487219741161 -164.04734096051723 137.48318796108438 -82.302838671321837 -5.2991298095564725e-06 -2.4756435476771056e-06 4.1614327137480843e-06 -1.6786950377142592e-21 1.1474113306708664e-07 4.1164575581564839e-08 2.7863524962867814e-05 0.0014844404968583716 1.2343893672760567e-10 6.9783011555078855e-11 -3.8456243540548796e-11 3.2292370496202087e-22 -65.754724465942374 -163.62432261291517 139.28801968872077 2018.1238718776010 0.0000000000000000 0.0000000000000000 0.0000000000000000 0.0000000000000000 3.0816930170948957 3.1649026296263103 1.0832176501376314 1.0408376087310900 612.27154492074976 612.58297546389542 1.0407774241289267 
-87.996918858984799 -164.04734096051718 121.39753842897767 -87.996918858984813 -164.04734096051715 121.39753842897777 -89.955441009618951 -3.7023962394787781e-06 -3.0948337073283108e-06 -2.2981980293319181e-06 0.0000000000000000 1.4720556437697319e-07 4.1164575581564833e-08 3.4772143661321309e-05 0.0015676666296273601 8.4180481433063573e-11 6.9898787306926300e-11 1.6667016784594332e-11 0.0000000000000000 -87.333945182495114 -163.62432261291505 123.64986896362312 1549.0027140339625 0.0000000000000000 0.0000000000000000 0.0000000000000000 0.0000000000000000 3.0820447539872577 3.1656199753602432 1.0835833749477997 1.0409145992917928 627.66670489926264 627.69613862339020 1.0409531015124962 
-87.996918858984799 -141.89858575342279 121.39753842897767 -87.996918858984813 -141.89858575342271 121.39753842897778 -78.604164225794904 -1.0547705707722622e-05 -6.2055990205433519e-06 7.2880382050528215e-07 0.0000000000000000 1.4720556437697319e-07 3.0150937913031584e-08 3.4772143661321315e-05 0.0014555631111017060 2.3559515332049018e-10 1.2532450382480382e-10 1.1063920965629591e-11 0.0000000000000000 -87.333945182495086 -141.58874659118649 123.64986896362313 1389.1126189879024 0.0000000000000000 0.0000000000000000 0.0000000000000000 0.0000000000000000 3.0817549193029952 3.1650144953736437 1.0832674910453854 1.0408880544325403 604.72264057246025 602.52963672399460 1.0408014291519982 
-45.575111245365598 -110.48301779876644 44.454248660281571 -45.575111245365591 -110.48301779876645 44.454248660281571 -115.72711603202389 2.9670217266614120e-06 4.7977849930074616e-06 -6.2834825853961572e-06 -115.61238153605315 8.3814430701378852e-08 1.4529294045662056e-08 6.7818483989512388e-05 0.0019533983223982876 1.7527477086821708e-11 -3.7582192822288001e-11 1.0677227737711814e-10 0.0018927445126329134 -45.197633928000002 -110.33371083599998 48.847122559999995 1069.0094105005942 0.0000000000000000 0.0000000000000000 0.0000000000000000 0.0000000000000000 3.0819480846894649 3.1654234242815997 1.0834834689823352 1.0409042452268746 671.29384645792300 671.13295269580169 1.0409051197657411 
-57.581915499383165 -98.921485562085465 41.758157612356328 -57.581915499383129 -98.921485562085451 41.758157612356321 -125.41480214717799 -2.9737563722226129e-06 5.3066145346777913e-06 -8.6306216355087176e-06 -125.88713548397314 1.0175625744790473e-07 8.7802257131563960e-09 6.8976426971012472e-05 0.0020692423047192219 1.1178064914149889e-10 -2.8182576937261984e-11 1.0361921436411018e-10 0.0022052172895921564 -57.123633070400032 -98.831257531200038 46.226036100800002 1475.5774262919704 0.0000000000000000 0.0000000000000000 0.0000000000000000 0.0000000000000000 3.0819465330136921 3.1654202604296366 1.0834818563357063 1.0409042452268744 689.53547996780992 689.57150574349726 1.0409043453865923 
-60.618358644727813 -105.71192067390551 53.108796718258951 -60.618358644727799 -105.71192067390551 53.108796718258958 -110.07302636894397 5.5775403632298108e-07 1.5015776232245010e-05 -1.4396059646598528e-05 -85.378159572634857 1.0629362920400176e-07 1.2156824158449098e-08 6.4101445872211116e-05 0.0018905069322339017 9.7778810173362692e-11 -1.4796099997023712e-10 3.0026687826193399e-10 0.0023298987085663527 -60.139641125599979 -105.58699381199996 57.260903223199996 1724.6135661994952 0.0000000000000000 0.0000000000000000 0.0000000000000000 0.0000000000000000 3.0819422579853315 3.1654116078849621 1.0834774782548016 1.0409042452268749 659.16221598280777 659.80824924125795 1.0409022430505190 
-19.608746010517095 -88.151248954394816 53.559508819474146 -19.608746010517102 -88.151248954394788 53.559508819474139 -111.86183002633425 -2.3809405142652854e-06 1.5828116927847521e-06 -1.2524636646169000e-05 -112.51782720277333 4.5012750582440468e-08 3.4246513958002826e-09 6.3907869731316680e-05 0.0019083787981573025 1.5708068367699110e-11 -1.0465626461285073e-10 2.9943204742295975e-11 0.0019117456592526313 -19.406020858399991 -88.116056368799974 57.699076624800000 1439.6451283969650 0.0000000000000000 0.0000000000000000 0.0000000000000000 0.0000000000000000 3.0819447883385869 3.1654167175910426 1.0834800578156434 1.0409042452268744 665.62227209536718 665.93682177195092 1.0409034818795804 
-59.246018647987285 -179.08820164603409 75.218152129173703 -59.246018647987285 -179.08820164603409 75.218152129173703 -114.10425471309630 -1.6972372807326093e-06 -2.8748917539606343e-06 -3.7571368482233014e-06 -116.67514751605678 1.0424293442334864e-07 4.8643757633026758e-08 5.4605708358579363e-05 0.0017781422118223196 3.9202490046386829e-11 1.9432816440613862e-11 1.0351689492578614e-10 0.0019361358029955876 -58.776536899199989 -178.58832514800000 78.755181813599989 1584.4809985467919 0.0000000000000000 0.0000000000000000 0.0000000000000000 0.0000000000000000 3.0820615666957418 3.1656554127862937 1.0836020240204109 1.0409042452268737 670.55500100972665 671.04628401651667 1.0409620785149085 
-75.039145286899398 -185.47532771320280 68.501892915144452 -75.039145286899398 -185.47532771320286 68.501892915144467 -117.65664041737824 -1.0081582216298081e-06 -2.3183290066347587e-06 -9.9512067913369691e-07 -118.37268706327320 1.2784269073917720e-07 5.1819812607600830e-08 5.7490271635707302e-05 0.0018253265553252671 6.4529794232525635e-12 9.1075485532387222e-12 2.7524021560807592e-11 0.0017823569862392627 -74.463376691600018 -184.94281327599995 72.225767276240006 1182.3928641350060 0.0000000000000000 0.0000000000000000 0.0000000000000000 0.0000000000000000 3.0819275101652654 3.1653790531431762 1.0834596366799552 1.0409042452268742 677.02822867148086 677.09246524516107 1.0408936666564130 
-70.280516599335954 -212.25783726775111 83.279502871987503 -70.280516599335940 -212.25783726775109 83.279502871987489 -115.65645614083083 4.2315960469612564e-07 5.3774597414940768e-07 -3.7177935447240362e-06 -115.48407716306852 1.2073184538219373e-07 6.5137612581533930e-08 5.1143442301615494e-05 0.0017918925226244132 -2.6529270036049040e-12 4.3794218159778047e-12 3.1299327416655654e-11 0.0018000150388573254 -69.736773305200003 -211.58846536000007 86.592267764799999 1391.6778601551057 0.0000000000000000 0.0000000000000000 0.0000000000000000 0.0000000000000000 3.0819742551962435 3.1654792675916776 1.0835131801308666 1.0409042452268737 671.82840956589393 671.66558774587247 1.0409193986650356 
-87.473293805982379 -207.92112811874168 87.101695802450564 -87.473293805982379 -207.92112811874173 87.101695802450564 -112.98410194493262 2.3537577805321662e-06 -1.1070299803875435e-06 -4.4490747880498885e-06 -118.49710063855476 1.4642310738888220e-07 6.2981160231512234e-08 4.9501850305055932e-05 0.0017742224500082997 -3.1389853491284977e-11 2.2422004696816430e-11 -2.3656564803756056e-11 0.0017999449044350795 -86.813844096400004 -207.27391660800001 90.308128229600001 1955.0875990986240 0.0000000000000000 0.0000000000000000 0.0000000000000000 0.0000000000000000 3.0820287761056542 3.1655884245662662 1.0835678135389384 1.0409042452268735 670.45086045407868 670.61682131485645 1.0409456431789206 
-74.948773302570643 -213.25983559606192 97.746795327022269 -74.948773302570643 -213.25983559606192 97.746795327022269 -110.24141786274640 -1.0502375479063337e-07 2.0049411334608695e-07 -1.2672941475152476e-06 -111.95630984331414 1.2770764087899344e-07 6.5635857360302197e-08 4.4929891103606685e-05 0.0017390927306942063 2.5935353288486933e-12 -2.2983247868386596e-12 9.3233101651788186e-12 0.0017546474528182126 -74.373612905599998 -212.58534351999998 100.65708370800000 988.41240310934302 0.0000000000000000 0.0000000000000000 0.0000000000000000 0.0000000000000000 3.0820345493255741 3.1656033125425793 1.0835769661235810 1.0409042452268717 665.11852713686073 665.17943755065937 1.0409500456505345 
-66.271487219741161 -186.19609616761156 105.31188889687098 -66.271487219741161 -186.19609616761142 105.31188889687105 -102.71027025003328 8.4409140651801682e-07 -5.3559962210127180e-06 -6.9565478721151755e-06 -4.5768626362045418e-20 1.1474113306708669e-07 5.2178213250098069e-08 4.1680762332241279e-05 0.0016736448533441607 -3.8129098848956963e-12 1.2622237398783630e-10 6.9080203395632196e-12 9.2021554938622596e-21 -65.754724465942374 -185.65989863464350 108.01171823852535 1808.0980320372519 0.0000000000000000 0.0000000000000000 0.0000000000000000 0.0000000000000000 3.0816195517865297 3.1647428107344653 1.0831311431291890 1.0408183616095525 648.42537269637717 648.10025487910048 1.0407358343418924 
-84.098092225986520 -209.01341951675059 106.35405616457750 -84.098092225986520 -209.01341951675062 106.35405616457750 -105.62408446003020 1.2090331229892604e-06 -1.1443255215765208e-06 -5.1681253126381216e-06 -104.12766842784389 1.4137951651060909e-07 6.3524290883076873e-08 4.1233162364484599e-05 0.0017021982892962042 -2.5358389281603585e-11 1.3990742007470045e-11 5.0015396495295295e-11 0.0016992673067408889 -83.461357431600007 -208.36062644399999 109.02489266960001 1287.0831768928649 0.0000000000000000 0.0000000000000000 0.0000000000000000 0.0000000000000000 3.0820569612205477 3.1656477012222095 1.0835989347441706 1.0409042452268733 653.20462130641556 653.65638038361067 1.0409605923964873 
-41.911663293234255 -130.29682711517546 61.845603708999917 -41.911663293234255 -130.29682711517540 61.845603708999910 -93.775607990992214 4.3542963584033381e-06 3.2604772950514423e-06 -8.0935785566266998e-06 -94.261857799387059 7.8340116976827203e-08 2.4381868468648090e-08 6.0349078411903172e-05 0.0016866327063019533 -3.0398228245122112e-11 4.8759090150606961e-12 1.6831759753318157e-10 0.0018577167569831670 -41.558840772800004 -130.04627243999997 65.754654395919971 2180.9238908936368 0.0000000000000000 0.0000000000000000 0.0000000000000000 0.0000000000000000 3.0819693989163328 3.1654668431622501 1.0835055794390236 1.0409042452268744 636.04413520480625 635.96666732634355 1.0409157363401518 
-23.013738416683388 -134.71826267650343 51.715115360647381 -23.013738416683392 -134.71826267650343 51.715115360647374 -105.17086849257581 2.5310382242237346e-06 1.3474137869175862e-06 -3.1878600940313066e-06 -106.05666609271712 5.0100847748257855e-08 2.6580457890279519e-08 6.4700017477825611e-05 0.0018180699442770271 -1.1918432394746843e-11 1.3567411171206167e-11 3.6120193462472010e-11 0.0018011421254198463 -22.788097858800000 -134.44511465599999 55.905993737599999 935.86986824075086 0.0000000000000000 0.0000000000000000 0.0000000000000000 0.0000000000000000 3.0819342290646814 3.1653951449435200 1.0834690408260526 1.0409042452268740 653.25073316651026 653.14900133141361 1.0408981921591758 
-11.171713802294411 -103.71717032954129 58.095257751956673 -11.171713802294413 -103.71717032954126 58.095257751956666 -104.16428816636967 -2.1533209631026656e-06 -1.3345287388563625e-06 -1.1485083374847139e-05 -102.42449755032591 3.2405249775213647e-08 1.1164919044848176e-08 6.1959812874157194e-05 0.0018076034708607623 -6.2807344412422364e-13 -5.2511525826335999e-11 3.2488307411343329e-11 0.0017996436233987728 -11.025769398400001 -103.60243655599999 62.108642139439993 1284.9349949311236 0.0000000000000000 0.0000000000000000 0.0000000000000000 0.0000000000000000 3.0819404617502792 3.1654079202476586 1.0834755860885712 1.0409042452268749 653.90256940431993 654.03398225786600 1.0409013347943696 
-29.261945431502081 -141.06991309664338 66.285719531524251 -29.261945431502081 -141.06991309664338 66.285719531524251 -93.302490543824078 3.3090995619254383e-06 4.3239842847972619e-06 -8.5789470739507777e-06 -91.091534656468738 5.9437578053822562e-08 2.9738863871475723e-08 5.8442094982957826e-05 0.0016669164671491267 -3.5984888207604548e-11 1.0262241454609356e-11 1.4911505665009584e-10 0.0018698444232436236 -28.994254794799993 -140.76430841599998 70.071247290159988 2176.9829965296321 0.0000000000000000 0.0000000000000000 0.0000000000000000 0.0000000000000000 3.0819802953832856 3.1654892986858774 1.0835171444633991 1.0409042452268737 631.60949175739086 631.73071421066390 1.0409212884267269 
-104.17826590029048 -194.63323390348867 90.940786325372812 -104.17826590029048 -194.63323390348867 90.940786325372798 -108.59133041978266 -6.7046921271753791e-07 -1.0240155974428226e-07 -3.6345552124604997e-06 -112.23746439175240 1.7138542393602130e-07 5.6373655576980042e-08 4.7853000972430941e-05 0.0017432550692635940 6.0438983317058361e-12 -1.6714039564260397e-11 1.6494573676346039e-12 0.0017214242043347876 -103.40639267600000 -194.05392295999994 94.040416199999996 2662.2783756828549 0.0000000000000000 0.0000000000000000 0.0000000000000000 0.0000000000000000 3.0820145131158436 3.1655615712123706 1.0835552420378962 1.0409042452268737 660.50454341764748 660.51411945726045 1.0409396064800036 
-83.138779498944629 -162.71760579416147 74.237584701721502 -83.138779498944601 -162.71760579416147 74.237584701721502 -109.53797710283297 -4.5721528640141126e-06 -5.1862941830229033e-06 -6.5065425862721741e-06 -107.93721803375227 1.3994601352762537e-07 4.0503353726517588e-08 5.5026851842221447e-05 0.0017648646160011441 5.7955896811730755e-11 6.6178601714998583e-11 1.8797214094394444e-10 0.0020766575731000266 -82.508500824799995 -162.30138233600007 77.801893530400037 2229.3857910936085 0.0000000000000000 0.0000000000000000 0.0000000000000000 0.0000000000000000 3.0820618534069557 3.1656561923136057 1.0836025151136353 1.0409042452268737 661.84381505190277 662.24583736325576 1.0409623173788563 
-28.251988911827961 -125.28701934810202 125.41895081200434 -28.251988911827969 -125.28701934810206 125.41895081200435 -55.312885363190254 -2.4843392140598063e-06 -5.8031636426885381e-07 1.1878333720184837e-05 -1.7527471112067592e-20 5.7928394692208229e-08 2.1890702639471016e-08 3.3044988978936374e-05 0.0011744063387028483 8.5685680113698551e-11 1.4934643018654521e-11 -8.9540592020494435e-11 3.3965284287777492e-21 -27.991095225219734 -125.06206457489009 127.55940664489751 1124.7619503421174 0.0000000000000000 0.0000000000000000 0.0000000000000000 0.0000000000000000 3.0818989438142133 3.1653213618684539 1.0834305164182421 1.0409419150743027 560.87657067416148 560.88313243830407 1.0408796616869163 