# For a description of the Tecplot format see the Tecplot User's guide.
#
Variables=x,y,z,s_u,s_v,s_w,s_p,mono_f_vel_u,mono_f_vel_v,mono_f_vel_w,const,u_nu,v_nu,w_nu,p_nu,x_nu,y_nu,z_nu,const,u_ref,v_ref,w_ref,vol_ref,x_ref,y_ref,z_ref,const,I1,I2,I3,J,p1,p2,p3
Zone f=fepoint, n=1339, e=6475, et=brick, c=black
-60.5819 -70.2482 173.098 -60.581944958451224 -70.248192310074145 173.09804418416755 -139.24978481656905 1.6913328770088294e-06 1.9485113708294426e-06 -5.5899593930900000e-07 -144.02755978951271 6.7207729714802156e-08 -2.6292095167690377e-09 3.3171437468837432e-05 0.0057374835607462574 -6.6230811546059672e-11 8.6548527226320464e-11 -1.8741370668417919e-10 0.0057333235589665330 -58.668039002000000 -70.473359259200009 176.35421013599998 215.13583165143561 0.0000000000000000 0.0000000000000000 0.0000000000000000 0.0000000000000000 3.3657929798451223 3.7604745086467157 1.3953277114156075 1.1804711986937197 2187.2615738937498 2187.2615738189697 1.1812416840493689 
-67.051181006292552 -76.313495227679041 181.72876970313052 -67.051181006292580 -76.313495227679056 181.72876970313058 -147.84041935391477 -2.1526171986915981e-05 -8.6680733577998633e-06 7.4268269077769868e-06 -149.61350647525745 7.3323153437776512e-08 -1.1815954881200239e-09 2.3387319259882133e-05 0.0059382968023124309 2.7548741276051717e-10 1.5050611075848484e-10 -2.0901300545974074e-10 0.0059795468015424336 -64.963123215600007 -76.414687385200040 184.02450960799996 253.42820447565578 0.0000000000000000 0.0000000000000000 0.0000000000000000 0.0000000000000000 3.3676702207175335 3.7646784135447366 1.3976738710414565 1.1804711986937180 2208.3393959620525 2208.3393957979488 1.1822378858874463 
-71.881687637890835 -71.382157537313120 174.09100262634942 -71.881687637890849 -71.382157537313120 174.09100262634936 -143.63509183513312 -7.6192565603807549e-06 -5.0512189302886217e-07 -2.4842132264056252e-06 -151.37658326257377 7.7889480976089955e-08 -2.3585531305769787e-09 3.2045782063505606e-05 0.0057335763382480413 4.2150005471004984e-11 1.2038951844239677e-10 -1.5796812117672744e-10 0.0057552758461798395 -69.663592608799988 -71.584146237200002 177.23667228800005 218.29881668600640 0.0000000000000000 0.0000000000000000 0.0000000000000000 0.0000000000000000 3.3687249990549994 3.7668714547912781 1.3988142748048447 1.1804711986937209 2206.8701194026326 2206.8701192331459 1.1827220591266181 
-59.037330209651572 -87.861625958212727 167.82825085048503 -59.037330209651593 -87.861625958212713 167.82825085048509 -118.34555588477868 -8.3562140870148473e-06 1.9002864378902929e-05 3.5007224143321266e-05 0.0000000000000000 6.5747588595677087e-08 1.5746131065697000e-09 3.9145475302149186e-05 0.0056910578891415436 2.1189565330877078e-10 -4.3705591224287800e-12 -2.3942118872878988e-10 0.0000000000000000 -57.165005282198301 -87.726774323660578 171.67083873969227 259.76550921814646 0.0000000000000000 0.0000000000000000 0.0000000000000000 0.0000000000000000 3.3572320457297304 3.7413048022173250 1.3846274931168947 1.1777746879306239 2112.0227635235574 2112.0227640063672 1.1766998244512381 
-91.648564074199783 -83.422028643842893 106.43893727884139 -91.648564074199825 -83.422028643842879 106.43893727884141 -71.782739588468360 1.6212382671444862e-05 2.9225137270805090e-05 -1.7524979323424045e-05 0.0000000000000000 9.6575279440180863e-08 5.1501292119837672e-10 0.00010873873244321430 0.0050241528807405660 -5.4574113019502560e-10 -6.7068397362475901e-10 -1.3081741349644818e-10 0.0000000000000000 -88.898344731952406 -83.377922378373768 117.11292023788836 283.91631954144174 0.0000000000000000 0.0000000000000000 0.0000000000000000 0.0000000000000000 3.3608039774459808 3.7485628860133131 1.3883189854983333 1.1789871824394655 2032.4611373922985 2032.4611154358040 1.1782696968297506 
-100.58652195620076 -66.602005627909293 96.432672571426849 -100.58652195620074 -66.602005627909293 96.432672571426835 -123.65101050785437 9.2138968284996655e-06 2.3249872230859300e-05 -8.7748568976327534e-05 -135.59811713583011 1.0502441194493171e-07 -3.4994371844732082e-09 0.00012008221411008435 0.0060016161331337388 -2.3388633076956355e-10 -3.0015151191772333e-10 1.2404811084831530e-09 0.0058929711051874953 -97.595692787999965 -66.901700632800015 108.22015140479995 322.25788568967050 0.0000000000000000 0.0000000000000000 0.0000000000000000 0.0000000000000000 3.3662193698931615 3.7616909102481673 1.3961343740226726 1.1804711986937195 2159.0678689528422 2159.0684115185536 1.1815835543630246 
-82.157245900639182 -67.244895841198769 96.877495855153143 -82.157245900639225 -67.244895841198755 96.877495855153086 -126.22096553361598 -1.2386084455367511e-05 2.1572027459372330e-05 -3.5007246692597657e-05 0.0000000000000000 8.7603051590612311e-08 -3.3459968129534449e-09 0.00011957794555073066 0.0058419197623338802 4.7236428300586986e-10 -1.5668133835901800e-10 9.5845893037359013e-10 0.0000000000000000 -79.662532843379708 -67.531450170133141 108.61547480962874 295.38956150422752 0.0000000000000000 0.0000000000000000 0.0000000000000000 0.0000000000000000 3.3611002641773395 3.7498832335509884 1.3893771023081376 1.1788567811751820 2141.1576576736356 2141.1578689508174 1.1787154639766682 
-97.382361038377567 -81.851508379989340 96.889685752206489 -97.382361038377582 -81.851508379989340 96.889685752206489 -104.37675375058235 -1.8125199447500850e-05 3.2936806985437063e-05 -6.2593807840153891e-05 0.0000000000000000 1.0199548239331335e-07 1.4017231819707376e-10 0.00011956412661362493 0.0060932056266998127 8.7433301959935190e-10 2.7519216696933075e-10 2.1126733151162800e-09 0.0000000000000000 -94.477787882002133 -81.839503548705352 108.62630821647583 293.80807890400462 0.0000000000000000 0.0000000000000000 0.0000000000000000 0.0000000000000000 3.3621283451953881 3.7517691015716110 1.3902266863617010 1.1790913430719820 2089.4786076738619 2089.4773840713078 1.1790765240902197 
-48.925137051286178 -126.89004232032585 130.70854251458604 -48.925137051286150 -126.89004232032585 130.70854251458604 -16.085568243169178 1.6438210428356029e-05 4.8050587301119398e-07 6.6187074915718269e-06 0.0000000000000000 1.7230441573334043e-06 1.4123095474676838e-07 8.0944859361791217e-05 0.0035015434515625696 -4.7147450193370727e-10 8.5811003959258263e-11 -5.1935566110870311e-10 0.0000000000000000 -47.292355390977058 -125.96433165720771 138.67232254046354 244.31333887135355 0.0000000000000000 0.0000000000000000 0.0000000000000000 0.0000000000000000 3.3706160592120793 3.7716390491118510 1.4017313677308298 1.1843539925167188 1999.5793378524922 1999.5777955641806 1.1839471929278649 
-35.449640007867607 -141.67268429587278 131.30443244406311 -35.449640007867622 -141.67268429587281 131.30443244406308 -14.197740151273459 1.4071334182820245e-05 8.9687206308786915e-06 5.7673114235490894e-06 0.0000000000000000 5.0553229782780034e-07 5.7234963871671182e-07 8.0897777379261855e-05 0.0039505112596594002 -1.2004045317106102e-09 6.6559258357560306e-10 -2.1851468861675009e-11 0.0000000000000000 -34.196989160350306 -140.43319657724166 139.21506628885933 210.16870282748488 0.0000000000000000 0.0000000000000000 0.0000000000000000 0.0000000000000000 3.3693831669397452 3.7690255720399124 1.4003423028556972 1.1834951692079234 1989.4864680513858 1989.4855104764424 1.1833611273122384 
-32.095274704391123 -128.60886113090729 135.26209758888706 -32.095274704391137 -128.60886113090731 135.26209758888709 -31.021462425563033 1.2068315562513286e-05 1.0008533576217733e-06 2.4481730322828717e-05 0.0000000000000000 4.0279030333323362e-08 1.1299819080434757e-08 7.6063703350115475e-05 0.0040118542209862029 -5.1245386359672188e-10 9.6968173967372308e-11 2.6360442132655864e-10 0.0000000000000000 -30.948229910445860 -127.64113600963313 142.72864290474456 229.21992526850030 0.0000000000000000 0.0000000000000000 0.0000000000000000 0.0000000000000000 3.3654573824079570 3.7600534339107665 1.3952501594473339 1.1819349770751539 2002.7600312864511 2002.7599690057777 1.1812075292012592 
-50.069971007649620 -131.92949009698211 139.91431823546210 -50.069971007649642 -131.92949009698211 139.91431823546202 -10.452094847648718 1.9582323152580206e-05 3.5128345970114685e-05 -1.7083183328287110e-05 0.0000000000000000 1.5014374626984965e-06 -1.9681342876515265e-07 7.0541828430437410e-05 0.0035736657808761677 -4.2198449166868527e-10 -1.1724827931471994e-09 2.4105954444363763e-10 0.0000000000000000 -48.406431667502837 -130.90513559487593 146.85896726379221 225.63426853136377 0.0000000000000000 0.0000000000000000 0.0000000000000000 0.0000000000000000 3.3731916631156520 3.7772411903297214 1.4047712698392418 1.1850506830830367 1993.0483647686654 1993.0479112257913 1.1852302370425500 
-54.758737264585946 -84.936825136880245 61.985572721385246 -54.758737264585974 -84.936825136880259 61.985572721385260 -100.10083346341200 -3.7659581493525865e-06 0.00014625412392817213 -0.00013537234480632307 0.0000000000000000 -1.1880691039267708e-07 1.2100768658679232e-06 0.00016560301820477708 0.011689819754035989 6.1774330243647186e-10 1.7426178053305663e-08 8.2585936789635340e-09 0.0000000000000000 -53.009977022357148 -84.940192361847963 77.707205907375524 356.07450292316213 0.0000000000000000 0.0000000000000000 0.0000000000000000 0.0000000000000000 3.3691831544910591 3.7678278153779563 1.3992958158130362 1.1818089065583168 2070.6045151433350 2070.6064766651684 1.1828956319146255 
-41.702984323801076 -85.716783702846129 50.534301002816655 -41.702984323801054 -85.716783702846129 50.534301002816633 -240.77631675780270 2.1926860347857440e-05 3.5841580567661862e-05 -0.00011961699123900711 0.0000000000000000 3.3874704922995613e-07 1.1774349886365740e-07 0.00017335028392614750 0.011290063375771176 2.9979610419089814e-09 1.6672513673168301e-09 -3.9108662087380520e-09 0.0000000000000000 -40.313282635619565 -85.652866469445740 67.489144002613742 334.72004880612383 0.0000000000000000 0.0000000000000000 0.0000000000000000 0.0000000000000000 3.3576325367903772 3.7432073064068159 1.3861910032537568 1.1785755994567590 2325.7301485522107 2325.7297274867228 1.1773575934635152 
-44.361848918394678 -94.302251034210428 68.286668158259886 -44.361848918394671 -94.302251034210428 68.286668158259928 -69.163185059651525 0.00013098654408692453 1.1086192656343746e-05 -5.5466286037356318e-05 0.0000000000000000 1.4198611184631868e-07 -1.0443542328273453e-06 0.00015874838732588914 0.0091572300544327453 9.0019582438305818e-09 1.4446782400701702e-09 1.5670635139933136e-08 0.0000000000000000 -42.930125987095458 -94.071309017270835 83.274511392489799 283.94561953274422 0.0000000000000000 0.0000000000000000 0.0000000000000000 0.0000000000000000 3.3718367829401878 3.7740145630715221 1.4028755400958064 1.1819936434535472 2040.6104191964837 2040.6137326229505 1.1844278156700419 
-46.480633971580133 -99.339169756195190 51.193918070165466 -46.480633971580126 -99.339169756195147 51.193918070165431 -144.29754150124634 0.00017906125730878666 4.5068051221231571e-05 -0.00019504382862275968 0.0000000000000000 5.3877633354737497e-08 4.3139836147787491e-09 0.00017136658416205822 0.010397472007357486 -4.2646427687759088e-09 -6.1326806495510495e-09 -9.1429794946358409e-09 0.0000000000000000 -44.946335306532468 -98.969717126470769 68.015559797458934 339.42980011114588 0.0000000000000000 0.0000000000000000 0.0000000000000000 0.0000000000000000 3.3675230291562217 3.7654720367484487 1.3986711140545516 1.1812898832799823 2135.3877002207155 2135.3863535524802 1.1826467154204459 
-36.900194575146173 -101.22994211885404 59.408468596047641 -36.900194575146195 -101.22994211885405 59.408468596047662 -157.77365127682540 9.4800223997257348e-05 3.1392141300585904e-05 -7.4829248356011048e-05 0.0000000000000000 -3.3274614427661439e-07 -1.0739435078816170e-06 0.00016446255488569963 0.0095885409400166544 3.8260571525680292e-09 -4.4545181422479010e-09 3.1396736755373983e-09 0.0000000000000000 -35.672109309640206 -100.83293553867907 75.360366609178811 338.44965823895870 0.0000000000000000 0.0000000000000000 0.0000000000000000 0.0000000000000000 3.3547857504644911 3.7368357842882030 1.3826458144953169 1.1785167212276206 2173.4135757280533 2173.4150686808639 1.1758570292393287 
-50.621565604088183 -112.63326063930735 48.231886761731587 -50.621565604088190 -112.63326063930732 48.231886761731587 -117.84776337420817 0.00018633729247020020 -5.5148296171629212e-06 -9.8318878061713213e-05 -47.745548089744524 5.7792094554365285e-08 7.4868988786391810e-09 0.00017472445533428524 0.0070630089877748098 -7.6652803512894939e-09 3.1486034564064778e-09 1.8939548146719233e-09 0.0043780401343969533 -48.975793059600008 -111.99207679200002 65.383142959360015 326.57209562220959 0.0000000000000000 0.0000000000000000 0.0000000000000000 0.0000000000000000 3.3636280315181213 3.7552912901936302 1.3922661963253520 1.1806964382229677 2105.0153049903611 2105.0144115969856 1.1799362250219843 
-26.228652173446640 -111.09154246848209 50.579660083161592 -26.228652173446648 -111.09154246848216 50.579660083161578 -247.32777216528319 3.3161879453324675e-05 1.0094055175052011e-05 -8.9492033788048073e-05 0.0000000000000000 3.4733261045083452e-08 7.1189296679818897e-09 0.00017206293034632836 0.0089319286887796639 -4.5401949779659222e-11 -1.3582012049107028e-09 5.4696039221324800e-10 0.0000000000000000 -25.239536857883341 -110.48187134057846 67.469656361758609 349.35568362690350 0.0000000000000000 0.0000000000000000 0.0000000000000000 0.0000000000000000 3.3597687994267993 3.7475959761339506 1.3884469910255408 1.1789670887762060 2351.8452726244418 2351.8455410352126 1.1783225439382812 
-45.586069743822982 -111.89468900769963 60.687167951850086 -45.586069743822989 -111.89468900769955 60.687167951850128 -89.696346755689731 8.8193807436572777e-05 -9.0029289069995983e-05 -4.4356509869067424e-05 0.0000000000000000 5.3031997571117977e-08 7.3106261044841858e-09 0.00016060467558887126 0.0066787965294059920 -3.3499053842934443e-09 8.4630185666289520e-10 4.2635429949778756e-09 0.0000000000000000 -44.075852747763513 -111.26860156453857 76.452402029906395 268.59635586333832 0.0000000000000000 0.0000000000000000 0.0000000000000000 0.0000000000000000 3.3689910750639633 3.7685246180129748 1.4002491973280444 1.1815407511670639 2099.5619263789399 2099.5531251988946 1.1833252319442653 
-60.189329488680407 -107.09939246462820 93.167359277480827 -60.189329488680407 -107.09939246462820 93.167359277480827 -5.4173983558468866 1.7112225107585517e-05 2.2928725760466303e-05 7.5057621484366088e-06 0.0000000000000000 2.2794122669993214e-06 -2.3011298225767365e-06 0.00012672705588350020 0.0033007795924671836 -5.5968762463447171e-10 -2.4543811062939216e-09 2.5282726741564756e-10 0.0000000000000000 -58.254647241440821 -106.62760994408018 105.33920711112118 241.62621693813244 0.0000000000000000 0.0000000000000000 0.0000000000000000 0.0000000000000000 3.3756026042064953 3.7829052515297223 1.4080699347314625 1.1861074177093489 1990.7731397818409 1990.7773129202271 1.1866199850707122 
-66.512312938057150 -90.175349736975619 83.385325427565647 -66.512312938057164 -90.175349736975647 83.385325427565689 -31.591206861302854 -2.0980854643262989e-05 -2.0718554503547107e-05 5.7414010260667502e-05 0.0000000000000000 3.0570727759635351e-06 -3.5808013829760494e-06 0.00013977210242074360 0.0053970841044473604 3.9842012419262440e-09 -1.4273694591897088e-09 -1.9174813371524904e-09 0.0000000000000000 -64.370648572599308 -90.090304358695661 96.688480747766732 239.98138923263960 0.0000000000000000 0.0000000000000000 0.0000000000000000 0.0000000000000000 3.3747090607756478 3.7807147108413846 1.4067331447256821 1.1834104645195127 2010.0751103446864 2010.0707730968418 1.1860485201352373 
-78.382885235189420 -100.01713422070409 88.614796661754610 -78.382885235189420 -100.01713422070408 88.614796661754568 -23.814391580455176 -2.7776393493457385e-05 4.2328689266414532e-05 -1.3806484429032380e-05 0.0000000000000000 4.0046377724534726e-06 -2.2595098939967510e-06 0.00013276873368332692 0.0053492491137172348 2.6925787685107667e-09 -3.5935953548898768e-09 1.8680267459838760e-09 0.0000000000000000 -75.913673002404863 -99.702254402691466 101.32606574872912 288.13617662859207 0.0000000000000000 0.0000000000000000 0.0000000000000000 0.0000000000000000 3.3757712871218684 3.7833188055401488 1.4083139723344040 1.1847653670377492 2007.3174967322325 2007.2960101569402 1.1867312741183966 
-57.020819355448907 -93.767040957034368 90.884058781407603 -57.020819355448936 -93.767040957034339 90.884058781407631 -31.023188905045831 2.2945689625518194e-06 2.7820463286571129e-05 3.0833535183692360e-05 0.0000000000000000 1.9224168664725537e-06 -2.9069606286179277e-06 0.00013038556243395759 0.0045307836055265525 4.8875169393197241e-10 6.1051897125298542e-11 -9.3914733346996901e-10 0.0000000000000000 -55.164710769962618 -93.586508083202432 103.32606452766413 222.68531933077850 0.0000000000000000 0.0000000000000000 0.0000000000000000 0.0000000000000000 3.3728087877898498 3.7760270147240642 1.4039137294756858 1.1843809741896030 2036.1576841118781 2036.1548253972430 1.1848683148307648 
-47.319663152824596 -177.87043701565432 149.80043399878110 -47.319663152824596 -177.87043701565435 149.80043399878107 -3.7787945450954341 -2.6669641282059652e-05 -1.2280338323706562e-05 4.1991007281870411e-05 0.0000000000000000 5.4670774907172870e-08 2.3057143971882965e-08 5.9582493097565241e-05 0.0036527473190257885 1.6921060336985943e-11 5.6369872543858888e-10 -6.9421127892943808e-10 0.0000000000000000 -45.762777822239421 -175.89580528354742 155.64915507299250 248.91339099022119 0.0000000000000000 0.0000000000000000 0.0000000000000000 0.0000000000000000 3.3718988596025521 3.7733008708026756 1.4020595439409120 1.1830975891397004 1961.8466595282812 1961.8570475612921 1.1840828499907226 
-53.149315010031088 -187.73915984264019 163.87073406179815 -53.149315010031081 -187.73915984264019 163.87073406179817 -9.5692559938915700 7.5711524607259593e-06 -8.1178030057572646e-06 -8.6825352020591092e-06 -18.378356676887250 6.0181599814690414e-08 2.5412518089851233e-08 4.3631866624593847e-05 0.0034784340342232929 -1.2534824100211140e-10 2.5250366686710391e-10 3.7551352789498254e-10 0.0034764647456525387 -51.435495451599998 -185.56281141599996 168.15371392000000 294.81703600272857 0.0000000000000000 0.0000000000000000 0.0000000000000000 0.0000000000000000 3.3634892119106401 3.7554792330108620 1.3926222394781702 1.1806101678552123 1947.3263536343331 1947.3212142344566 1.1800953468545854 
-44.146244413155735 -173.05279840271191 161.74868334070598 -44.146244413155735 -173.05279840271203 161.74868334070604 -7.0154244370147314 8.6892947391975167e-06 -7.5633755127441366e-06 1.4557539377032012e-06 0.0000000000000000 4.3387561260790400e-08 -4.0810747648146361e-07 4.6155301470822218e-05 0.0036631581544131694 -4.2483321093097984e-10 -4.7508734695607238e-10 -3.7756814510186749e-12 0.0000000000000000 -42.672974891599750 -171.18173466392949 166.26923354793541 271.88244999766295 0.0000000000000000 0.0000000000000000 0.0000000000000000 0.0000000000000000 3.3652338298976003 3.7592338083496162 1.3946417375066256 1.1812694692596564 1945.0783947216182 1945.0764862812944 1.1809498421615645 
-61.316412750494266 -180.03628506326660 152.16502654873946 -61.316412750494244 -180.03628506326652 152.16502654873955 -16.886629446404250 -2.3658193921294447e-06 -4.9468066769000850e-06 -3.3183005250621910e-06 0.0000000000000000 6.7902030331801200e-08 2.3574082019806039e-08 5.6901901203332266e-05 0.0037655647786457446 2.5189693301815794e-10 1.2516109911706036e-10 2.8439588156969934e-11 0.0000000000000000 -59.382734921100123 -178.01738339707751 157.75061606229067 243.94852352315442 0.0000000000000000 0.0000000000000000 0.0000000000000000 0.0000000000000000 3.3649480829507135 3.7583139532507057 1.3939888892791896 1.1811836025087024 1959.0946648921258 1959.1020502068639 1.1806738222608357 
-31.785126751174154 -103.15898139061666 81.877111381415588 -31.785126751174165 -103.15898139061666 81.877111381415546 -37.516513105302145 2.1177202024141073e-05 5.5059606369595630e-05 -9.3880803009371429e-05 0.0000000000000000 -1.4953420008181235e-06 6.8651084933510866e-07 0.00013993031281629416 0.0074824658900611470 -5.7875702580997631e-09 1.1758062973573396e-08 6.8318528767605572e-10 0.0000000000000000 -30.660097366607719 -102.72526557899965 95.328291536857705 204.58703120518373 0.0000000000000000 0.0000000000000000 0.0000000000000000 0.0000000000000000 3.3706655570473925 3.7700123771133076 1.3999702015635576 1.1824090323269343 2007.5494908171386 2007.5501164325622 1.1832002155493899 
-19.615305574968914 -111.52447132504328 79.705117609290383 -19.615305574968929 -111.52447132504322 79.705117609290440 -107.04292128193109 6.4821001587543582e-05 -2.6091770595051195e-06 -0.00010026118863540238 0.0000000000000000 2.8481606073604834e-08 7.2222590130621711e-09 0.00013904520564267386 0.0081275937523765610 6.6395998427454640e-09 1.2712997209854672e-10 -3.6444167336593778e-09 0.0000000000000000 -18.804221549666405 -110.90595113131390 93.354036648627854 267.24800799435923 0.0000000000000000 0.0000000000000000 0.0000000000000000 0.0000000000000000 3.3619116241074676 3.7511273396601159 1.3897992752585724 1.1798483131942661 2120.7316329089608 2120.7318148555646 1.1788994022665735 
-34.992994876567906 -105.20504749264428 70.237402482989083 -34.992994876567884 -105.20504749264424 70.237402482989125 -97.660179446295942 7.8767557564749755e-05 -2.7883701254453652e-05 -7.4027685278005905e-05 0.0000000000000000 -2.0531211015704306e-06 7.3003778846505178e-08 0.00015300488340014119 0.0069503858486851325 -4.6338924011287243e-09 3.6248450397965124e-10 -1.0018159451491233e-09 0.0000000000000000 -33.815892125380543 -104.71065599625929 85.007910193808286 270.69679205096202 0.0000000000000000 0.0000000000000000 0.0000000000000000 0.0000000000000000 3.3591685386649561 3.7463920016293493 1.3878484854660278 1.1794948878473810 2075.5899597547855 2075.5884321090566 1.1780615346234733 
-19.735503475048002 -100.77855480361559 82.005085047362073 -19.735503475048002 -100.77855480361562 82.005085047362101 -74.018321980088444 3.2116693723004933e-05 -1.8829917597796790e-05 -1.7049225048485539e-05 0.0000000000000000 2.8595231071903988e-08 4.6575274748050788e-09 0.00013643787522710227 0.0065859038038019449 2.1769353297939280e-09 3.0513758151269916e-09 7.9076614559412779e-10 0.0000000000000000 -18.921183722278450 -100.37968114352928 95.398064000337470 185.31956687594098 0.0000000000000000 0.0000000000000000 0.0000000000000000 0.0000000000000000 3.3653358706966903 3.7585970239060060 1.3938610712276651 1.1804441144211184 2076.3924209885181 2076.3923478773672 1.1806226192975504 
-32.265403612933099 -118.72474668028322 169.58618947327571 -32.265403612933113 -118.72474668028325 169.58618947327571 -44.894275746701460 5.1989448307759513e-05 6.5396684258058955e-05 -7.5492997408999202e-06 0.0000000000000000 -3.6051976107974099e-07 -6.1947609597493922e-07 3.5806655661373680e-05 0.0058072945053603475 -3.5920039784754818e-10 4.1495520568877890e-11 -1.5104018574592054e-09 0.0000000000000000 -31.124431206993112 -117.97934695114738 173.21200361760444 258.17126679857051 0.0000000000000000 0.0000000000000000 0.0000000000000000 0.0000000000000000 3.3665408644941079 3.7616214383975821 1.3957051740996109 1.1818918187933556 2015.8010113214111 2015.8010091648100 1.1813990066653555 
-31.780467632030064 -134.20610103715416 160.11253206699087 -31.780467632030074 -134.20610103715410 160.11253206699078 -24.143624588338351 2.2959890871944948e-05 8.9097820644120476e-06 -7.8572456783508739e-06 0.0000000000000000 9.5641687886628568e-08 -5.8051819971389614e-07 4.7295908663446346e-05 0.0043147586882911031 -7.7350033196122216e-10 -6.2986020707949858e-10 8.3854018921048389e-11 0.0000000000000000 -30.642131568542830 -133.13454878399213 164.80820313575899 262.24283076768535 0.0000000000000000 0.0000000000000000 0.0000000000000000 0.0000000000000000 3.3682048719997373 3.7656975785261442 1.3981509415066380 1.1825436895235546 1994.1558030238955 1994.1558255794666 1.1824340107737157 
-44.151594527270532 -120.87512350169037 158.90129992110519 -44.151594527270518 -120.87512350169030 158.90129992110531 -5.6336775747869385 5.8856305663657004e-05 1.3466051220160648e-05 -7.0664402035454173e-06 0.0000000000000000 2.6846269669431968e-07 -1.5158423490135836e-06 4.6683646972294450e-05 0.0047090747431753240 -8.2450991738143263e-10 -1.3928544989216497e-09 -2.8763873975251962e-09 0.0000000000000000 -42.676694985445003 -120.10595080876966 163.70375490782192 268.28772502602959 0.0000000000000000 0.0000000000000000 0.0000000000000000 0.0000000000000000 3.3761530079183379 3.7835859282463096 1.4081707225524409 1.1858828122366183 1987.1018675720773 1987.1018584065728 1.1866612854784011 
-24.695156952627357 -114.92193174228164 156.73581923215789 -24.695156952627368 -114.92193174228167 156.73581923215798 -62.896464863220643 2.2521284053213666e-05 1.9470004595938378e-05 1.3865978140954968e-05 0.0000000000000000 3.3283633515956978e-08 8.0331383767173747e-09 5.1720277024713823e-05 0.0048803015739124446 -4.5373963923119464e-10 -3.3777003933825229e-10 -7.2156998001350965e-10 0.0000000000000000 -23.747323328369049 -114.23396745764113 161.81277151251504 321.01516800445251 0.0000000000000000 0.0000000000000000 0.0000000000000000 0.0000000000000000 3.3627161733033510 3.7534127019583288 1.3913019891051099 1.1803755158968643 2043.7504807691364 2043.7504798826794 1.1795367451187604 
-6.9331277882094389 -105.48257663019764 97.683176564412108 -6.9331277882094362 -105.48257663019764 97.683176564412122 -10.847639861261650 3.5451750719449600e-06 -4.5876009071558379e-06 -5.2509446255884061e-05 17.142111185834771 1.6493032384268247e-08 5.7802405084572683e-09 0.00011866459529130678 0.0034267650882821368 -5.3578128375787082e-11 -1.5879189042674413e-10 2.2671972823027874e-09 0.0028712117626158388 -6.4634479885999987 -104.98755276399999 109.33149947120000 327.67017865987640 0.0000000000000000 0.0000000000000000 0.0000000000000000 0.0000000000000000 3.3642289539076704 3.7570760552709768 1.3934806579102859 1.1806809197850965 1924.2067062790304 1924.2069076613154 1.1804579193166769 
-12.424341712304717 -97.447670933396012 88.800947047483348 -12.424341712304715 -97.447670933396012 88.800947047483334 -58.632758140079417 4.2177999093256089e-06 -1.5563750341712940e-05 -6.9648535248257657e-05 -52.933115351862185 2.1683924544824151e-08 3.8625276310710888e-09 0.00012873382797806698 0.0052379566846531642 1.4420273399347599e-10 -1.0796071404954183e-10 1.3529895702643599e-09 0.0052586425080428769 -11.806838433999999 -97.116880539599975 101.43768333439998 212.90238721710071 0.0000000000000000 0.0000000000000000 0.0000000000000000 0.0000000000000000 3.3645334718154620 3.7576172344465961 1.3937147055529173 1.1804711986937193 2035.9128773049983 2035.9130234434583 1.1805568020529957 
-16.578949971956970 -110.96723303473858 90.668512882189020 -16.578949971956963 -110.96723303473860 90.668512882189077 -47.723226564135523 1.8840590886167909e-05 -1.0280039067546503e-05 -0.00013473831508498517 0.0000000000000000 2.5611314014017950e-08 7.0892689496560024e-09 0.00012661668442603968 0.0048526517406140878 -1.1190481270855417e-09 8.2773729466933561e-10 3.2468274549620675e-09 0.0000000000000000 -15.849604639409371 -110.36010279166017 103.09742667861765 236.22178992679409 0.0000000000000000 0.0000000000000000 0.0000000000000000 0.0000000000000000 3.3622855661915598 3.7528425823041549 1.3911809290477519 1.1803210010246010 2010.4741976366176 2010.4738705861453 1.1794836864285114 
-24.697474671644656 -99.915444138148118 89.750811440078536 -24.697474671644656 -99.915444138148089 89.750811440078508 -33.892878153855754 3.3441868364160431e-05 4.2623989672604049e-05 -7.6835470766343787e-05 0.0000000000000000 3.3285825207229891e-08 4.4515175989801037e-09 0.00012765702563655168 0.0047470360457914683 -7.0924391229705923e-10 -1.4157640144363143e-09 2.3421441908740782e-09 0.0000000000000000 -23.749578654390465 -99.534212460059550 102.28184693721489 211.57004919854941 0.0000000000000000 0.0000000000000000 0.0000000000000000 0.0000000000000000 3.3646886107453473 3.7581372005113285 1.3940886114436426 1.1811697590872390 1990.0486197437515 1990.0481033155449 1.1807155242246878 
-55.913817492013727 -108.89532609207433 102.74765236507351 -55.913817492013756 -108.89532609207434 102.74765236507348 -1.3263994399355725 5.8996569884778916e-06 -2.7137134403523267e-06 -2.6317509779803249e-06 0.0000000000000000 2.4477141969600611e-06 -1.5283561904175088e-06 0.00011488253958702268 0.0024494355184972727 -1.5720496302465213e-09 -1.3918131508880404e-09 -3.6560287151269690e-10 0.0000000000000000 -54.087034329299712 -108.37170302860723 113.84396407125838 191.01171882188567 0.0000000000000000 0.0000000000000000 0.0000000000000000 0.0000000000000000 3.3746233904829803 3.7804095540579201 1.4065301869022482 1.1858176000392573 1980.5339401417798 1980.5247063674681 1.1859729826554046 
-43.167841401599617 -108.26473157870770 99.512861042393041 -43.167841401599617 -108.26473157870763 99.512861042393055 -3.7605298910617009 -7.4014577005215670e-06 6.4657536942549598e-07 1.0822603982729462e-05 0.0000000000000000 1.8473248923614315e-06 -1.7350120496691468e-06 0.00011897196061265250 0.0023409828471461520 8.7582039190453762e-10 -2.3799140237106127e-09 -1.5484635974037954e-09 0.0000000000000000 -41.690910404717421 -107.74885629568415 110.97670241767709 270.34727434602189 0.0000000000000000 0.0000000000000000 0.0000000000000000 0.0000000000000000 3.3738952052660105 3.7781719189988361 1.4049783230072135 1.1851691017992183 1986.6343638523178 1986.6303511212102 1.1853177191179549 