# For a description of the Tecplot format see the Tecplot User's guide.
#
Variables=x,y,z,s_u,s_v,s_w,s_p,mono_f_vel_u,mono_f_vel_v,mono_f_vel_w,const,u_nu,v_nu,w_nu,p_nu,x_nu,y_nu,z_nu,const,u_ref,v_ref,w_ref,vol_ref,x_ref,y_ref,z_ref,const,I1,I2,I3,J,p1,p2,p3
Zone f=fepoint, n=1339, e=6475, et=brick, c=black
-60.0490 -70.3106 174.065 -60.049004693755585 -70.310591768182491 174.06524490759216 -202.45569252740663 7.9589272943310527e-07 4.1884506270985999e-07 1.4622864973584116e-06 -205.84694232683188 3.9452746625201485e-10 -1.1738388039361782e-11 7.8398966607551312e-07 0.00018368274125168127 1.7056691896987598e-12 -5.4377383660069417e-12 9.1924825609249196e-12 0.00018667640406660565 -58.668039002000000 -70.473359259200009 176.35421013599998 215.13583165143561 0.0000000000000000 0.0000000000000000 0.0000000000000000 0.0000000000000000 3.2570657696803709 3.5288319606658733 1.2720070944729203 1.1264780550293338 1284.6121904789582 1284.6091007581397 1.1278394531002573 
-66.469746966693833 -76.341538134591616 182.41068866230856 -66.469746966693833 -76.341538134591616 182.41068866230856 -214.08600507117302 -1.3716548492888438e-05 -1.1449363107918802e-05 1.1913768583750713e-05 -215.13325848183797 4.3043052455615793e-10 -5.2724491439448684e-12 5.5274712096320400e-07 0.00018202545598998323 8.9523824508122066e-12 -3.6075693370675880e-13 -2.8410118639166664e-12 0.00018642916588293914 -64.963123215600007 -76.414687385200040 184.02450960799996 253.42820447565578 0.0000000000000000 0.0000000000000000 0.0000000000000000 0.0000000000000000 3.2603961526873344 3.5360550398126169 1.2759174731693350 1.1264780550293363 1315.1569269275064 1315.1514124790333 1.1295827518061934 
-71.264043835728458 -71.438133716170128 175.02538189860090 -71.264043835728458 -71.438133716170128 175.02538189860090 -206.48026142996267 -7.4444329106233980e-06 -1.5313993303888093e-06 -4.5677611007610058e-07 -213.53001228040344 4.5723130837060921e-10 -1.0532685834618862e-11 7.5738539351277733e-07 0.00018703907959707788 8.1889188449551942e-12 -2.7770381560332500e-12 9.0415408588047329e-12 0.00019001585003063746 -69.663592608799988 -71.584146237200002 177.23667228800005 218.29881668600640 0.0000000000000000 0.0000000000000000 0.0000000000000000 0.0000000000000000 3.2620977649602914 3.5395715625454112 1.2777348562593269 1.1264780550293365 1307.7624629140082 1307.7629846845136 1.1303930716917356 
-58.515968468198295 -87.824255158662638 168.96964039918797 -58.515968468198267 -87.824255158662666 168.96964039918808 -183.25973027773759 -8.8439308031258989e-06 1.7019870577766548e-05 3.5269273823589919e-05 0.0000000000000000 3.8595499018967411e-10 7.0363714854693171e-12 9.2518294181331839e-07 0.00017172698267553611 6.0431202523773489e-13 -2.6986017557076720e-11 -6.5703475584952991e-12 0.0000000000000000 -57.165005282198301 -87.726774323660578 171.67083873969227 259.76550921814646 0.0000000000000000 0.0000000000000000 0.0000000000000000 0.0000000000000000 3.2418055515475701 3.4957093716117633 1.2540586397937756 1.1215670753444298 1199.8795739080226 1199.8866399319807 1.1198383628053721 
-90.882746600625424 -83.409805681835621 109.60950173794156 -90.882746600625467 -83.409805681835664 109.60950173794160 -149.38377853041027 6.2566640813958340e-06 2.8318102230992378e-05 -1.4102837690547567e-05 0.0000000000000000 5.6692400773883378e-10 2.3012702854430245e-12 2.5699833656744882e-06 0.00020102803602638772 1.4741093860713558e-11 -4.6022490168894149e-12 1.0065595299000771e-11 0.0000000000000000 -88.898344731952406 -83.377922378373768 117.11292023788836 283.91631954144174 0.0000000000000000 0.0000000000000000 0.0000000000000000 0.0000000000000000 3.2453519922783918 3.5023184403080312 1.2571094472023707 1.1226291476798855 1141.8027061532011 1141.8027259933735 1.1212060576932112 
-99.753705023274833 -66.685058695757689 99.933986148081217 -99.753705023274833 -66.685058695757689 99.933986148081217 -195.22785493282146 3.9430345226190547e-06 1.4525887447470894e-05 -6.5519903451840121e-05 -204.31741613553839 6.1652233318554284e-10 -1.5631052008302504e-11 2.8380806504912930e-06 0.00017314080111730629 -4.4277098272295836e-12 6.3293180076053098e-12 -5.5043988248340041e-11 0.00017980591063801734 -97.595692787999965 -66.901700632800015 108.22015140479995 322.25788568967050 0.0000000000000000 0.0000000000000000 0.0000000000000000 0.0000000000000000 3.2587611380276158 3.5328643864016658 1.2743639121800363 1.1264780550293361 1276.2390158153607 1276.2389889305341 1.1288890021349032 
-81.462575907793351 -67.324307295293295 100.36410615212603 -81.462575907793322 -67.324307295293252 100.36410615212601 -192.66049499515407 -1.2340642643910243e-05 1.5732487683691954e-05 -2.7715059032260157e-05 0.0000000000000000 5.1425413927219665e-10 -1.4945378268294007e-11 2.8261625217851365e-06 0.00018309376843337686 -8.9928416498614634e-12 -1.6091560132353569e-11 -5.0376910309737656e-11 0.0000000000000000 -79.662532843379708 -67.531450170133141 108.61547480962874 295.38956150422752 0.0000000000000000 0.0000000000000000 0.0000000000000000 0.0000000000000000 3.2480823389080533 3.5092633151402457 1.2613733465450485 1.1233323487394360 1236.0827454072344 1236.0827504720628 1.1230976756791835 
-96.573562684639839 -81.848181537529953 100.37589312183223 -96.573562684639882 -81.848181537529911 100.37589312183219 -180.03262881492205 -1.8937173856285053e-05 2.2951059669914633e-05 -4.8870588830974619e-05 0.0000000000000000 5.9874077917854152e-10 6.1928240313591222e-13 2.8258359243693576e-06 0.00015716543300797815 1.6133417155400201e-13 -6.8259898752910131e-11 -1.1201090896326612e-10 0.0000000000000000 -94.477787882002133 -81.839503548705352 108.62630821647583 293.80807890400462 0.0000000000000000 0.0000000000000000 0.0000000000000000 0.0000000000000000 3.2489998069851955 3.5107068144869658 1.2618870583527342 1.1234449053276068 1203.4822963139857 1203.4823011609733 1.1233267974181731 
-48.546676912463781 -126.60807569171206 133.12143651378406 -48.546676912463752 -126.60807569171212 133.12143651378400 -59.214395245689907 8.7764242961577959e-06 5.6746591431207011e-06 1.6051165414913706e-05 0.0000000000000000 1.1517905134870537e-07 -1.6140234581665238e-07 2.0617332347178212e-06 0.00020047524092999479 7.1641506272705271e-12 -1.4966205675456299e-11 3.0334347161688945e-11 0.0000000000000000 -47.292355390977058 -125.96433165720771 138.67232254046354 244.31333887135355 0.0000000000000000 0.0000000000000000 0.0000000000000000 0.0000000000000000 3.2695446114419591 3.5568147972487516 1.2876082502653388 1.1352821788825589 1080.1253260964695 1080.1296457526760 1.1347275636558745 
-35.132365617898550 -141.33902585199223 133.66021327426938 -35.132365617898557 -141.33902585199215 133.66021327426930 -57.548980909417850 1.5789087665007205e-05 3.4355089405990079e-06 8.4799584672921700e-06 0.0000000000000000 5.7523599782776440e-08 -6.9640597564735013e-08 1.9370165213337127e-06 0.00015742291063273222 7.8256399084054173e-12 -5.0492738683338288e-11 6.4282633498582582e-11 0.0000000000000000 -34.196989160350306 -140.43319657724166 139.21506628885933 210.16870282748488 0.0000000000000000 0.0000000000000000 0.0000000000000000 0.0000000000000000 3.2670088771254502 3.5512478897155737 1.2845531692945764 1.1334667824310798 1069.2440484984147 1069.2395630697390 1.1333839254868996 
-31.775872199768351 -128.34068001729452 137.47993541957746 -31.775872199768372 -128.34068001729440 137.47993541957746 -74.146837037603774 1.2255238052977415e-05 3.9290332115600856e-06 2.4893759583278983e-05 0.0000000000000000 2.3644813884615701e-10 5.0462745093682315e-11 1.7977260498014402e-06 0.00017165997283797845 5.6345712423134870e-12 -1.9049835737133602e-11 3.3096918371182603e-11 0.0000000000000000 -30.948229910445860 -127.64113600963313 142.72864290474456 229.21992526850030 0.0000000000000000 0.0000000000000000 0.0000000000000000 0.0000000000000000 3.2605030886987274 3.5368583190720804 1.2766275931991282 1.1308408865092567 1076.9549872693615 1076.9539226151853 1.1298781325914222 
-49.680746810960692 -131.61987825656061 142.01024899751900 -49.680746810960713 -131.61987825656067 142.01024899751894 -56.501340656492189 1.6062456821397763e-05 3.5500912670935194e-05 -1.6545275950038521e-05 0.0000000000000000 1.2577942814254683e-07 -1.5342301750590752e-07 1.8234332399468263e-06 0.00016851717561327707 7.0340334936647635e-12 -2.0981467645143617e-11 2.6799607476799862e-11 0.0000000000000000 -48.406431667502837 -130.90513559487593 146.85896726379221 225.63426853136377 0.0000000000000000 0.0000000000000000 0.0000000000000000 0.0000000000000000 3.2733895837562175 3.5648720564557399 1.2918248664509913 1.1360193568658177 1079.0539727233036 1079.0512919762366 1.1365847671348346 
-54.269624575554587 -84.863853325579697 66.517105560652922 -54.269624575554616 -84.863853325579683 66.517105560652922 -173.74703321748751 -7.7937602361664640e-06 0.00012097491891469202 -0.00016669110620791749 0.0000000000000000 8.8119583518391374e-09 -3.2891229678862607e-07 3.1672089837852161e-06 -0.00029677752924731342 5.5756570088411733e-11 -1.0798574859973371e-09 -8.9435327584916896e-10 0.0000000000000000 -53.009977022357148 -84.940192361847963 77.707205907375524 356.07450292316213 0.0000000000000000 0.0000000000000000 0.0000000000000000 0.0000000000000000 3.2576638437425105 3.5296836562815810 1.2722269247828069 1.1269441188992249 1174.8231577317090 1174.8229530597500 1.1278704860240867 
-41.309800841822096 -85.676505617296797 55.507639637416688 -41.309800841822131 -85.676505617296741 55.507639637416716 -299.92334466556287 1.0616690207465994e-05 3.1735241832857173e-05 -0.00010667804916999383 0.0000000000000000 -1.5130760944950988e-07 -1.0502186464515033e-07 4.1358658913800422e-06 -0.00020991843803621360 -2.8625631817669303e-10 -1.4448371703044639e-10 3.3422566956286336e-10 0.0000000000000000 -40.313282635619565 -85.652866469445740 67.489144002613742 334.72004880612383 0.0000000000000000 0.0000000000000000 0.0000000000000000 0.0000000000000000 3.2429173431732989 3.4992899122792567 1.2565811578784711 1.1230037290708439 1409.8297245202482 1409.8295339664205 1.1209552738257633 
-43.933530957596325 -94.180081579550318 72.639218904509264 -43.933530957596311 -94.180081579550318 72.639218904509278 -137.59625310305199 0.00011663043764585105 1.5365413753107875e-05 -6.3772072093984074e-05 0.0000000000000000 -1.4489970682645150e-07 2.3226027306404207e-07 3.0096938207329971e-06 -0.00010910462368385409 -5.9256297557711190e-10 2.8811090433148204e-10 -8.3149669261216711e-10 0.0000000000000000 -42.930125987095458 -94.071309017270835 83.274511392489799 283.94561953274422 0.0000000000000000 0.0000000000000000 0.0000000000000000 0.0000000000000000 3.2617068291822311 3.5388016729693663 1.2773446388315290 1.1274239850072136 1143.8580216012667 1143.8591063820895 1.1301844715092424 
-46.053397965591181 -99.236785085705066 56.190562678733869 -46.053397965591174 -99.236785085705051 56.190562678733848 -219.64821815625140 0.00011847724935548251 5.1724821045971413e-05 -0.00016968598029081143 0.0000000000000000 3.1627284124979838e-10 1.9260371075802144e-11 4.0501600508946467e-06 -0.00022881968990422349 -4.0726684843619511e-10 5.9932174204570684e-10 3.4814845849702575e-10 0.0000000000000000 -44.946335306532468 -98.969717126470769 68.015559797458934 339.42980011114588 0.0000000000000000 0.0000000000000000 0.0000000000000000 0.0000000000000000 3.2563178095359104 3.5285122143215668 1.2724830549715207 1.1265059253041740 1268.3117535518497 1268.3116166354591 1.1280236382857789 
-36.521290413063859 -101.09824077095428 64.095568455721875 -36.521290413063859 -101.09824077095431 64.095568455721846 -214.95168138408766 7.3586203179132193e-05 3.1390708148091018e-05 -7.1584340127113890e-05 0.0000000000000000 -9.9402203554099600e-08 1.9168155130605412e-07 3.6967180066861335e-06 -3.0424231286410419e-05 -1.9117397070228309e-10 2.9892535683686364e-10 -1.6959745628114379e-10 0.0000000000000000 -35.672109309640206 -100.83293553867907 75.360366609178811 338.44965823895870 0.0000000000000000 0.0000000000000000 0.0000000000000000 0.0000000000000000 3.2383885639478267 3.4895368267579561 1.2513434560832799 1.1227041302283878 1247.6940748796367 1247.6976403094925 1.1186285359070824 
-50.163288930392746 -112.45557237388853 53.326438958204044 -50.163288930392739 -112.45557237388856 53.326438958204029 -187.16239153046266 0.00014255070285535052 1.7071967381585285e-05 -9.4599159118679421e-05 -131.60277539618320 3.3925512399335389e-10 3.3437252966450615e-11 4.1295215815750899e-06 7.5182221238682715e-05 2.1512615224208401e-10 1.7068320011598627e-10 -2.7103168586952694e-10 0.00024539195259931027 -48.975793059600008 -111.99207679200002 65.383142959360015 326.57209562220959 0.0000000000000000 0.0000000000000000 0.0000000000000000 0.0000000000000000 3.2540757094721946 3.5219663921283604 1.2680958176618415 1.1264995080537141 1218.5543485002906 1218.5534132490934 1.1260763917748162 
-25.953226217268398 -110.92258717485133 55.596608500702942 -25.953226217268394 -110.92258717485130 55.596608500702985 -288.28993499077171 2.5955545241402383e-05 1.5257173543234748e-05 -8.3966580523286128e-05 0.0000000000000000 2.0389084864902427e-10 3.1786351328833007e-11 4.0666178300341471e-06 6.6336707293253964e-05 -2.7538676812074053e-11 6.4400646934480766e-11 -7.0938372054131701e-11 0.0000000000000000 -25.239536857883341 -110.48187134057846 67.469656361758609 349.35568362690350 0.0000000000000000 0.0000000000000000 0.0000000000000000 0.0000000000000000 3.2474934707227412 3.5087394552036519 1.2614640286402909 1.1239975150584185 1408.3825292251950 1408.3823524544712 1.1231432765295297 
-45.165539444037428 -111.72118433779413 65.370020739704202 -45.165539444037442 -111.72118433779409 65.370020739704174 -150.56616025876741 7.1692616374753677e-05 -6.7399978626866226e-05 -4.0344242437803420e-05 0.0000000000000000 3.1130770183906975e-10 3.2647218262127353e-11 3.7958079417421686e-06 0.00014771347229998872 1.7296643266357642e-10 -1.8669139105041509e-10 -1.8275202960928047e-11 0.0000000000000000 -44.075852747763513 -111.26860156453857 76.452402029906395 268.59635586333832 0.0000000000000000 0.0000000000000000 0.0000000000000000 0.0000000000000000 3.2615348538974973 3.5395304628054585 1.2782934147096892 1.1269983659166076 1195.6762160848227 1195.6747342789567 1.1306260421187548 
-59.730169164093233 -106.85644127393772 96.751469070962159 -59.730169164093233 -106.85644127393775 96.751469070962202 -45.370567440968848 2.0092439275363148e-05 4.6096423743063472e-05 7.5805719754007495e-06 0.0000000000000000 2.3431040059263186e-08 6.8937932950624478e-08 2.6946853587207198e-06 0.00029365368983326094 -3.6338825478866367e-11 -1.6808934746095444e-11 -3.2932571568555596e-11 0.0000000000000000 -58.254647241440821 -106.62760994408018 105.33920711112118 241.62621693813244 0.0000000000000000 0.0000000000000000 0.0000000000000000 0.0000000000000000 3.2792295560803990 3.5774887217944533 1.2986415680166039 1.1384590365160761 1073.0462985901866 1073.0475229713929 1.1395760016860697 
-66.010027826427873 -90.016726342501968 87.242793971498273 -66.010027826427873 -90.016726342501954 87.242793971498273 -94.806434745714569 -2.8538653587686414e-05 4.2484749586715926e-07 5.5915437264670214e-05 0.0000000000000000 -9.6208848391500854e-08 9.7535985294865185e-08 2.7545867124491269e-06 0.00018257806022464783 -5.0768220868674642e-10 1.1831167990953574e-10 -2.2494055238583740e-10 0.0000000000000000 -64.370648572599308 -90.090304358695661 96.688480747766732 239.98138923263960 0.0000000000000000 0.0000000000000000 0.0000000000000000 0.0000000000000000 3.2699759398599340 3.5567641904301168 1.2870601394192152 1.1302427753083972 1108.3188125756458 1108.3186648441404 1.1344554522482719 
-77.812294515638285 -99.831193833438945 92.318676418848966 -77.812294515638300 -99.831193833438988 92.318676418848995 -82.362768439325436 -4.4769942927499757e-05 5.8169993390185695e-05 -1.4809795430784511e-05 0.0000000000000000 -8.2057096644178955e-08 6.1930151777419311e-08 2.7708653059235728e-06 0.00018108953402908216 -7.6962344580736322e-11 9.4381918323945548e-11 -1.4090862141965063e-10 0.0000000000000000 -75.913673002404863 -99.702254402691466 101.32606574872912 288.13617662859207 0.0000000000000000 0.0000000000000000 0.0000000000000000 0.0000000000000000 3.2735015934134983 3.5648477683014157 1.2916792594830850 1.1333830402876539 1104.8732320653407 1104.8731857158318 1.1365395230935149 
-56.578127069215256 -93.593978196857236 94.522577583846044 -56.578127069215263 -93.593978196857265 94.522577583846044 -88.363532998855263 1.2083517359598864e-07 3.1472928923536351e-05 2.6476119452358658e-05 0.0000000000000000 2.9479658391118622e-08 5.5189482619743190e-08 2.6818584782271781e-06 0.00027197612943371179 6.0493816102211188e-11 -1.3152624925644810e-10 1.8019936361184610e-10 0.0000000000000000 -55.164710769962618 -93.586508083202432 103.32606452766413 222.68531933077850 0.0000000000000000 0.0000000000000000 0.0000000000000000 0.0000000000000000 3.2688989826377650 3.5538221639247118 1.2851826570987219 1.1329092216220966 1130.0901539389588 1130.0904009668566 1.1336594347716218 
-46.886137734615794 -177.32321660641833 151.53771868812640 -46.886137734615808 -177.32321660641819 151.53771868812643 -53.217883234594218 -2.9980158660977535e-05 -2.4968784475436290e-05 5.7012794498854899e-05 0.0000000000000000 3.2093222523954518e-10 1.0296630215123059e-10 1.4082012214089445e-06 0.00012090047779328074 6.4287765680826126e-11 2.3466319538261410e-11 -6.0074367338936558e-11 0.0000000000000000 -45.762777822239421 -175.89580528354742 155.64915507299250 248.91339099022119 0.0000000000000000 0.0000000000000000 0.0000000000000000 0.0000000000000000 3.2696896365911807 3.5551781105320450 1.2857474249013878 1.1317237587022613 1038.9425540991588 1038.9417704944537 1.1338972348514249 
-52.672090177728251 -187.13603863411217 165.14293617881080 -52.672090177728251 -187.13603863411211 165.14293617881077 -65.547191320291958 4.9551929466231859e-06 -6.4873589162553165e-06 -5.9228119090531125e-06 -74.071164625983556 3.5327690772746218e-10 1.1348455508652931e-10 1.0312164597792162e-06 0.00013407276364618559 -1.1186015697920506e-11 1.4339354023511048e-12 3.7367356841121182e-12 0.00013410767354495769 -51.435495451599998 -185.56281141599996 168.15371392000000 294.81703600272857 0.0000000000000000 0.0000000000000000 0.0000000000000000 0.0000000000000000 3.2530178014182805 3.5202510747863420 1.2674618552324317 1.1267774745602941 1027.0806779019313 1027.0804898399313 1.1258207314307245 
-43.740124040047839 -172.52496822331875 163.09348342423354 -43.740124040047831 -172.52496822331884 163.09348342423348 -62.079579986511298 6.5068895010266725e-06 -5.7430399356263059e-06 1.0619809166165241e-05 0.0000000000000000 1.3269909517897015e-08 -2.7669602915941434e-08 1.1032771851185707e-06 0.00013116955742587197 7.8501057853990541e-12 2.6206792395017355e-12 2.5797359724861300e-11 0.0000000000000000 -42.672974891599750 -171.18173466392949 166.26923354793541 271.88244999766295 0.0000000000000000 0.0000000000000000 0.0000000000000000 0.0000000000000000 3.2561671111634789 3.5269505192979413 1.2710227868671284 1.1280497496247912 1025.9528753588017 1025.9565845329419 1.1273978496172103 
-60.777966871918174 -179.47679633531001 153.82415151293833 -60.777966871918139 -179.47679633531001 153.82415151293841 -74.693494731975605 -1.2850821123463544e-05 -5.9596706495163780e-06 -3.1209776885404890e-06 0.0000000000000000 3.9860198475238912e-10 1.0528267146980851e-10 1.3448468223486998e-06 0.00014120759308774156 -2.7354318725776408e-12 -5.5091553735422534e-12 1.1548670256235268e-11 0.0000000000000000 -59.382734921100123 -178.01738339707751 157.75061606229067 243.94852352315442 0.0000000000000000 0.0000000000000000 0.0000000000000000 0.0000000000000000 3.2555260513499551 3.5251474237241598 1.2698398422664814 1.1278205671105046 1045.5336036748010 1045.5349280981909 1.1268744995228663 
-31.475475951942961 -103.00288231006917 85.812140553852061 -31.475475951942951 -103.00288231006921 85.812140553852046 -81.944556164632431 2.7201995277108399e-05 5.2594207636615704e-05 -0.00010806609602388643 0.0000000000000000 7.2615395952278123e-08 -1.5091971380033046e-08 3.0806916045254857e-06 0.00010537424454801760 1.2695936418509931e-10 -5.4065077533571790e-10 -5.6252103474450907e-11 0.0000000000000000 -30.660097366607719 -102.72526557899965 95.328291536857705 204.58703120518373 0.0000000000000000 0.0000000000000000 0.0000000000000000 0.0000000000000000 3.2669818662412804 3.5487701416175708 1.2820071322038553 1.1308570167784335 1082.4879424133180 1082.4751110516261 1.1322486043000881 
-19.389453654879475 -111.35306373139937 83.759347204493253 -19.389453654879489 -111.35306373139932 83.759347204493238 -146.29116044182950 5.5389468926951185e-05 1.0731351161036913e-06 -0.00010069715195529973 0.0000000000000000 1.6719292617040085e-10 3.2257307935878998e-11 3.2862610801487335e-06 0.00010228636118539918 -3.1773139886046490e-10 -3.5087053312730624e-13 1.6330628982436042e-10 0.0000000000000000 -18.804221549666405 -110.90595113131390 93.354036648627854 267.24800799435923 0.0000000000000000 0.0000000000000000 0.0000000000000000 0.0000000000000000 3.2518468661491942 3.5167791502758239 1.2651241885797238 1.1261005270816584 1177.5571534526289 1177.6031824846070 1.1247853764006495 
-34.636695394678597 -105.05292966847284 74.538453279469394 -34.636695394678583 -105.05292966847279 74.538453279469408 -148.95462355178284 6.0343831164374829e-05 -1.4754488245271109e-05 -7.8087918311252723e-05 0.0000000000000000 2.8875249915264686e-08 1.2531573604764712e-07 3.4037273552161615e-06 0.00013373816341242069 1.5753137228841957e-10 1.4784622959425369e-11 5.7006953968644074e-12 0.0000000000000000 -33.815892125380543 -104.71065599625929 85.007910193808286 270.69679205096202 0.0000000000000000 0.0000000000000000 0.0000000000000000 0.0000000000000000 3.2453317217507731 3.5043903941847008 1.2592800982223473 1.1246793826644714 1148.4763490862317 1148.4640968704691 1.1221541452374604 
-19.508750544411541 -100.66801682128863 85.983291049067361 -19.508750544411548 -100.66801682128860 85.983291049067319 -117.07995431348894 2.2580539965628488e-05 -9.6667807435623592e-06 -2.4239965757457179e-05 0.0000000000000000 1.6785900447402469e-10 2.0795809518858732e-11 3.2246381920231215e-06 0.00014006554045442411 -7.9890616314717500e-11 -8.0813345923065750e-11 -4.2513313639160278e-11 0.0000000000000000 -18.921183722278450 -100.37968114352928 95.398064000337470 185.31956687594098 0.0000000000000000 0.0000000000000000 0.0000000000000000 0.0000000000000000 3.2569312353844211 3.5274625402059532 1.2707322508001402 1.1268776080328022 1137.9542908836306 1137.9331407727370 1.1272809647006876 
-31.938091965549567 -118.49352210392375 170.70281354063181 -31.938091965549571 -118.49352210392375 170.70281354063175 -107.09374808269958 5.1757160495769879e-05 5.5749329239800195e-05 1.0140290299841106e-05 0.0000000000000000 2.4216399179412799e-08 -3.9728018337942154e-08 8.9183765974982745e-07 0.00011584499365085272 -1.9079820270876967e-11 -8.4458987147126171e-11 3.4510626840278654e-11 0.0000000000000000 -31.124431206993112 -117.97934695114738 173.21200361760444 258.17126679857051 0.0000000000000000 0.0000000000000000 0.0000000000000000 0.0000000000000000 3.2579022865223335 3.5300760005489065 1.2723899649366361 1.1287755329956082 1110.2514018956124 1112.2596865110679 1.1280028449437507 
-31.467028930143897 -133.89423274078192 161.52301509971863 -31.467028930143897 -133.89423274078183 161.52301509971861 -78.113591823184990 3.4816272671988958e-05 3.6115450768739674e-06 -3.9876006794497069e-06 0.0000000000000000 2.9352182885961052e-08 -2.0559929171542811e-08 1.1608532392866619e-06 0.00013328621942015109 1.0685701001924666e-11 9.3721262653171282e-13 1.0475010136817498e-11 0.0000000000000000 -30.642131568542830 -133.13454878399213 164.80820313575899 262.24283076768535 0.0000000000000000 0.0000000000000000 0.0000000000000000 0.0000000000000000 3.2622531407581379 3.5400009257814165 1.2780076086273953 1.1307599915854929 1079.8701421915105 1079.6398237340834 1.1304877947495913 
-43.762990768913312 -120.59910901997311 160.39818016893497 -43.762990768913340 -120.59910901997316 160.39818016893503 -55.319142145775125 6.6972188808569197e-05 2.9431230768327201e-05 5.1190708056301626e-06 0.0000000000000000 4.5720589686169434e-08 -9.7401091968157745e-08 1.2559221082721623e-06 0.00011848854587066611 -6.5691921184739648e-11 1.8993581948506075e-11 1.9756763669108159e-11 0.0000000000000000 -42.676694985445003 -120.10595080876966 163.70375490782192 268.28772502602959 0.0000000000000000 0.0000000000000000 0.0000000000000000 0.0000000000000000 3.2795786520140662 3.5776380005879345 1.2984073773363281 1.1369316875548203 1075.5823013072256 1075.2176944979774 1.1394735665394859 
-24.431226167054025 -114.73127943417809 158.24386028135262 -24.431226167054014 -114.73127943417819 158.24386028135265 -116.51762913177484 2.3442574213509708e-05 1.8773038628782825e-05 1.8621640013107870e-05 0.0000000000000000 1.9538171081023850e-10 3.5878633397601334e-11 1.2223818401935205e-06 0.00014901232187584113 -1.2518760651358337e-11 -1.7832487254478725e-11 2.7142647000522810e-11 0.0000000000000000 -23.747323328369049 -114.23396745764113 161.81277151251504 321.01516800445251 0.0000000000000000 0.0000000000000000 0.0000000000000000 0.0000000000000000 3.2527338794186740 3.5192645460887735 1.2667377340708041 1.1268819017620735 1122.1216860933321 1121.9568465832754 1.1255015003421034 
-6.8023422206728918 -105.34539299325020 101.14315572664994 -6.8023422206728945 -105.34539299325023 101.14315572664992 -48.080991174650777 3.4890721012323548e-06 -4.2435077753513942e-06 -5.6490719633247377e-05 -22.072995498721976 9.6817637240675948e-11 2.5808688519646239e-11 2.8045759599137905e-06 0.00019045947203888818 -1.8643569544766332e-11 5.4096630054953459e-11 -1.8089396030535843e-11 0.00017249554509198887 -6.4634479885999987 -104.98755276399999 109.33149947120000 327.67017865987640 0.0000000000000000 0.0000000000000000 0.0000000000000000 0.0000000000000000 3.2545599156069729 3.5235634823108750 1.2692352619430696 1.1271912647168818 976.45006490952426 976.44475016907916 1.1266047771963161 
-12.252393681378292 -97.356000546598750 92.554521238489627 -12.252393681378292 -97.356000546598764 92.554521238489642 -99.877482664998652 -1.1204600348343939e-06 -7.9217399565109891e-06 -6.6712616100894173e-05 -91.921553161999569 1.2729040044234807e-10 1.7251533535045379e-11 3.0425570471948045e-06 0.00017054904495246952 -6.7384677386234950e-12 -6.5346482514414610e-13 -3.1712129357993723e-12 0.00016584644373236209 -11.806838433999999 -97.116880539599975 101.43768333439998 212.90238721710071 0.0000000000000000 0.0000000000000000 0.0000000000000000 0.0000000000000000 3.2537821410671439 3.5216155135903557 1.2680550351089388 1.1264780550293350 1086.6765633164009 1086.6713361514069 1.1260797159506810 
-16.375858752520475 -110.79898188457477 94.360356170619269 -16.375858752520472 -110.79898188457477 94.360356170619283 -83.465355559656416 2.4734553256072033e-05 -7.4707270737580163e-06 -0.00012628350400586540 0.0000000000000000 1.5034334888142098e-10 3.1662672483889758e-11 2.9925194517943505e-06 0.00017834038320933140 -2.8348394053061631e-11 -4.6297849815015238e-12 -3.1500346042823147e-11 0.0000000000000000 -15.849604639409371 -110.36010279166017 103.09742667861765 236.22178992679409 0.0000000000000000 0.0000000000000000 0.0000000000000000 0.0000000000000000 3.2521727597099073 3.5185274160461835 1.2665812490274311 1.1268928439013020 1059.5780889345840 1059.6403289226446 1.1254266440663716 
-24.433526512312895 -99.809795195357779 93.472988619429273 -24.433526512312895 -99.809795195357779 93.472988619429273 -76.732731343893974 3.2888808518191438e-05 4.9957312530367603e-05 -7.7555304613709255e-05 0.0000000000000000 1.9539531104229016e-10 1.9879209389728203e-11 3.0171073781559699e-06 0.00019354665259250768 9.9558527873993490e-11 1.8757889483723691e-11 -9.2574415992265331e-12 0.0000000000000000 -23.749578654390465 -99.534212460059550 102.28184693721489 211.57004919854941 0.0000000000000000 0.0000000000000000 0.0000000000000000 0.0000000000000000 3.2574488769783496 3.5299260326186626 1.2727206790167207 1.1286181594603140 1057.3054813159290 1057.2977851130734 1.1281482553014046 
-55.497565384421641 -108.65326163917804 106.04008315127379 -55.497565384421634 -108.65326163917807 106.04008315127383 -26.625424868479058 1.1022620670453330e-05 3.0154673703467294e-05 -2.3513408267742815e-05 0.0000000000000000 1.2431702401177690e-07 4.1425780690651328e-08 2.5576945521084298e-06 0.00040027824775838440 2.2420669783354013e-10 1.8716194356293272e-10 -2.5807778197139478e-10 0.0000000000000000 -54.087034329299712 -108.37170302860723 113.84396407125838 191.01171882188567 0.0000000000000000 0.0000000000000000 0.0000000000000000 0.0000000000000000 3.2833942578611244 3.5860421118141530 1.3030318093444313 1.1403408843928298 1046.9843743271119 1046.9848489211402 1.1415066525686985 
-42.834076520258570 -108.03451290293314 102.90061174548029 -42.834076520258570 -108.03451290293319 102.90061174548023 -36.208943120555887 -1.3076621277602819e-05 2.4065362747232003e-05 8.7865643392151330e-06 0.0000000000000000 9.8416904980725898e-08 1.5747421926373806e-08 2.6559047043612172e-06 0.00027289616398532934 4.4865355172775040e-11 -4.7935405629474967e-11 -2.3686146176163017e-12 0.0000000000000000 -41.690910404717421 -107.74885629568415 110.97670241767709 270.34727434602189 0.0000000000000000 0.0000000000000000 0.0000000000000000 0.0000000000000000 3.2777596242863321 3.5729384160415480 1.2954894700751332 1.1378035563586149 1058.8084065856283 1058.8081576953989 1.1381960555648503 