# For a description of the Tecplot format see the Tecplot User's guide.
#
Variables=x,y,z,s_u,s_v,s_w,s_p,mono_f_vel_u,mono_f_vel_v,mono_f_vel_w,const,u_nu,v_nu,w_nu,p_nu,x_nu,y_nu,z_nu,const,u_ref,v_ref,w_ref,vol_ref,x_ref,y_ref,z_ref,const,I1,I2,I3,J,p1,p2,p3
Zone f=fepoint, n=1339, e=6475, et=brick, c=black
-59.6119 -70.3619 174.822 -59.611930577943333 -70.361938865745273 174.82205796970155 -323.70710080202798 -0.00013972369397335205 2.1464606575461551e-05 -2.5773827121211022e-05 -408.74807706631242 1.5385508450593832e-08 -6.0463511974973017e-10 7.1318755647808993e-06 -0.0077010070954911742 -8.1028248121777780e-09 1.5445263414898452e-09 -5.5735350786244840e-09 -0.017988538065534611 -58.668039002000000 -70.473359259200009 176.35421013599998 215.13583165143561 0.0000000000000000 0.0000000000000000 0.0000000000000000 0.0000000000000000 3.1713686440420541 3.3494127399399507 1.1781192259682851 1.0844482845501622 1625.9157326044726 1625.9155390808212 1.0854131535227967 
-65.992902213922378 -76.364614006094911 182.94427508662253 -65.992902213922406 -76.364614006094911 182.94427508662253 -264.61606339267007 -0.00014397726979036777 9.1043059046267647e-05 -0.00013093913224915805 -302.47601138115851 1.6785485917880649e-08 -2.7173230332522280e-10 5.0282852850358495e-06 -0.0051682158185108089 -4.2690469612157644e-10 2.6033915754551769e-09 -2.4941457003732073e-09 -0.0058335920942581224 -64.963123215600007 -76.414687385200040 184.02450960799996 253.42820447565578 0.0000000000000000 0.0000000000000000 0.0000000000000000 0.0000000000000000 3.1717473268649932 3.3504522107543853 1.1787872284208247 1.0844482845501633 1452.0920528691520 1452.0919076616415 1.0857240203511525 
-70.757502790511694 -71.484195243050209 175.75651290489341 -70.757502790511694 -71.484195243050195 175.75651290489347 -328.93291234643306 0.00017009668152813051 4.6954944699428038e-05 -1.5684710204896043e-05 -337.96766939664116 1.7830823401121521e-08 -5.4239890356910781e-10 6.8898591010224663e-06 -0.0065036389476403620 1.2549874295550076e-09 5.5026966807160571e-10 -1.0896605871399726e-10 -0.0024375681977351314 -69.663592608799988 -71.584146237200002 177.23667228800005 218.29881668600640 0.0000000000000000 0.0000000000000000 0.0000000000000000 0.0000000000000000 3.1725262698035919 3.3523788810429518 1.1799450343891669 1.0844482845501637 1589.8928585270824 1589.8928899446257 1.0862522178934904 
-58.088390112312283 -87.793503576058129 169.86275234430215 -58.088390112312261 -87.793503576058200 169.86275234430204 -244.39257114513688 -7.5635605018178884e-05 0.00011736576458685249 -6.4541327785948101e-05 0.0000000000000000 1.5051250495945467e-08 3.6212133291968479e-10 8.4162966764722569e-06 0.0016707333813027055 1.1571135792554187e-08 7.5198555303375594e-09 2.2523176532696029e-08 0.0000000000000000 -57.165005282198301 -87.726774323660578 171.67083873969227 259.76550921814646 0.0000000000000000 0.0000000000000000 0.0000000000000000 0.0000000000000000 3.1699681548380876 3.3448596956504417 1.1749202872398141 1.0855727089135752 1403.9830216226840 1403.9835935294611 1.0839375643070133 
-90.254685601467784 -83.399747683870274 112.09039793538334 -90.254685601467813 -83.399747683870316 112.09039793538338 -544.61300611466311 0.0013201320629783015 0.00019290533951990538 0.00067016495446150224 0.0000000000000000 2.2108471969817245e-08 1.1844047964615356e-10 2.3378881580882194e-05 -0.092705018835844130 -8.1383806589533191e-08 3.4252693974540152e-08 4.1986842315848527e-07 0.0000000000000000 -88.898344731952406 -83.377922378373768 117.11292023788836 283.91631954144174 0.0000000000000000 0.0000000000000000 0.0000000000000000 0.0000000000000000 3.1627598502377534 3.3299193415332362 1.1670405363976135 1.0748719490002807 1716.7329012346086 1716.7323092606534 1.0805169676713868 
-99.070696534884604 -66.753401179923046 102.67368617639679 -99.070696534884618 -66.753401179923031 102.67368617639680 -340.05222256781593 0.00012798197706558129 0.00019999439321541316 -0.00076019319672408076 -402.03863823630564 2.4042678320457259e-08 -8.0476114661109932e-10 2.5817735785693685e-05 -0.0080091520295989850 -3.0695509631297346e-08 -2.9153569316229367e-08 -6.2974947830786815e-08 0.024023932638153854 -97.595692787999965 -66.901700632800015 108.22015140479995 322.25788568967050 0.0000000000000000 0.0000000000000000 0.0000000000000000 0.0000000000000000 3.1636772457526159 3.3337283982206971 1.1701727265542112 1.0844482845501648 1518.3069817508547 1518.3045568945784 1.0816673025966688 
-80.892864266512547 -67.389653178167961 103.09230119099186 -80.892864266512547 -67.389653178167933 103.09230119099180 -465.31003217660560 -0.00039279645047431822 -5.5280201271213147e-06 9.8700217823175309e-05 0.0000000000000000 2.0054505195377100e-08 -7.6947392901871581e-10 2.5709317785782556e-05 -0.070454346603778584 3.9176568936568170e-07 -1.1705708260727869e-07 -1.1107312015217373e-07 0.0000000000000000 -79.662532843379708 -67.531450170133141 108.61547480962874 295.38956150422752 0.0000000000000000 0.0000000000000000 0.0000000000000000 0.0000000000000000 3.1770350736776583 3.3604482164569287 1.1834395379924521 1.0809130782899121 1373.9039703423475 1373.9122031882396 1.0879557423539057 
-95.910252274922158 -81.845443954391939 103.10377287900728 -95.910252274922172 -81.845443954391897 103.10377287900731 -273.38195279771600 -0.00017634055149280171 0.00023613944447040824 -0.00033600232475451068 0.0000000000000000 2.3349286754070772e-08 3.2232216895522470e-11 2.5706346711729108e-05 -0.022777736285523806 -1.5659741014570154e-08 -5.1886941614496838e-08 -5.5241987251643329e-08 0.0000000000000000 -94.477787882002133 -81.839503548705352 108.62630821647583 293.80807890400462 0.0000000000000000 0.0000000000000000 0.0000000000000000 0.0000000000000000 3.1846394505610833 3.3769388665458089 1.1923267291567725 1.0875483673158852 1356.0024184711760 1355.9988132943827 1.0919481166777711 
-48.235470110189674 -125.73882409690376 134.60540668499766 -48.235470110189674 -125.73882409690384 134.60540668499755 -298.72003003925261 -0.00031281638843910369 0.00054746681061483560 -0.00046535061612081226 0.0000000000000000 -2.0136264303673557e-05 0.00013329001908555713 -6.9067180355964397e-05 -0.085460461782892544 4.1847944425724285e-08 1.4606536812810774e-07 1.1530578361914593e-07 0.0000000000000000 -47.292355390977058 -125.96433165720771 138.67232254046354 244.31333887135355 0.0000000000000000 0.0000000000000000 0.0000000000000000 0.0000000000000000 3.1650943480870000 3.3348214833934269 1.1697142219716377 1.0810841435611025 1405.5285356627408 1405.5285453721733 1.0814142120924497 
-34.862304751661419 -140.94767868390761 135.47270470173873 -34.862304751661433 -140.94767868390770 135.47270470173865 -70.873112864928075 5.6234249104682476e-05 -1.4681545756570042e-05 9.1872562124657169e-05 0.0000000000000000 -1.6524754644839477e-05 2.2818327421579474e-05 9.7975517599089782e-06 0.0064821890317971814 -8.0064621319600378e-09 -3.6266727161658963e-08 1.3703135553137201e-08 0.0000000000000000 -34.196989160350306 -140.43319657724166 139.21506628885933 210.16870282748488 0.0000000000000000 0.0000000000000000 0.0000000000000000 0.0000000000000000 3.1847688217815087 3.3776199495257990 1.1929212368920803 1.0930110763363747 1171.4340079735111 1171.4339217031086 1.0921654909095115 
-31.513924329539524 -128.11999986681548 139.21534421245337 -31.513924329539549 -128.11999986681542 139.21534421245349 -142.06630185505651 7.1579811859568153e-05 -4.2708376493576148e-05 0.00024171626686559408 0.0000000000000000 9.2208634894230812e-09 2.5985996687794000e-09 1.6353734054064258e-05 -0.00033567031105157771 -4.0789000088659093e-08 3.3865122586357173e-08 6.2832400750024671e-08 0.0000000000000000 -30.948229910445860 -127.64113600963313 142.72864290474456 229.21992526850030 0.0000000000000000 0.0000000000000000 0.0000000000000000 0.0000000000000000 3.1913862969731932 3.3907164541236474 1.1993469961720542 1.0931608194509526 1337.1927932578690 1337.1928461272564 1.0949928761407910 
-49.304333451479380 -130.98027767822902 143.31201390506692 -49.304333451479359 -130.98027767822899 143.31201390506700 -84.564534700299731 0.00017527674123012750 8.5631473457020897e-05 1.2419279012188039e-05 0.0000000000000000 -2.3890956519241014e-05 0.00010404463650215283 -7.2937057316759272e-05 -0.025514967813709689 -3.5019696999223957e-08 1.4213025201507105e-07 -6.4974992920043993e-08 0.0000000000000000 -48.406431667502837 -130.90513559487593 146.85896726379221 225.63426853136377 0.0000000000000000 0.0000000000000000 0.0000000000000000 0.0000000000000000 3.2074283178108933 3.4247843577786350 1.2174524854170068 1.0986614904988217 1231.0553829529924 1231.0553692407957 1.1033633754632037 
-53.881527366294698 -84.839553686478652 70.378923217690101 -53.881527366294684 -84.839553686478652 70.378923217690058 -247.63353794296137 9.3331727177060040e-05 0.00043955569473645522 -0.00019689438753626735 0.0000000000000000 2.7387569548885292e-05 -9.2475498966172225e-06 7.0196975850014324e-05 -0.028933106333695943 1.4383397989192516e-07 -8.7817183779344675e-09 -5.3403833940325536e-08 0.0000000000000000 -53.009977022357148 -84.940192361847963 77.707205907375524 356.07450292316213 0.0000000000000000 0.0000000000000000 0.0000000000000000 0.0000000000000000 3.2051977475617499 3.4193770397643042 1.2142805647310626 1.0970744932832130 1533.0824827480099 1533.0218668268963 1.1018390404205090 
-41.000343812359823 -85.684590685476408 59.490169769508064 -41.000343812359823 -85.684590685476437 59.490169769508093 -477.57091802562024 -9.0064765475879484e-05 -0.00013101235426397253 -4.6616959574523914e-05 0.0000000000000000 -1.8620912168016737e-06 -1.5646679428422447e-05 4.4189556385547267e-05 -0.026342859636636167 6.5310101926353403e-09 -7.3979570257597245e-08 1.6645434766641289e-08 0.0000000000000000 -40.313282635619565 -85.652866469445740 67.489144002613742 334.72004880612383 0.0000000000000000 0.0000000000000000 0.0000000000000000 0.0000000000000000 3.1665943151818250 3.3392966886144211 1.1727650123237332 1.0846608624824827 1873.4254889912243 1873.4851205646792 1.0829586279692345 
-43.650729015990322 -94.123975676369511 76.336644606980741 -43.650729015990336 -94.123975676369511 76.336644606980769 -174.12435466980835 0.00038689422040113293 0.00021603951193481955 -0.00042607676786507448 0.0000000000000000 -3.8274426362948446e-05 3.5954395425241496e-05 8.3396672264053208e-05 -0.065533652584144050 -1.3058472576916776e-07 1.2843554977970601e-07 9.3391136663089071e-09 0.0000000000000000 -42.930125987095458 -94.071309017270835 83.274511392489799 283.94561953274422 0.0000000000000000 0.0000000000000000 0.0000000000000000 0.0000000000000000 3.2253283200156679 3.4597572951322224 1.2345156834426982 1.1019866302069783 1439.0235485105177 1439.0512632669127 1.1110413360231914 
-45.703013857031827 -99.152535064567758 60.100325993523384 -45.703013857031834 -99.152535064567786 60.100325993523420 -291.12201535738126 0.00061731813254290010 5.7812306928508245e-05 -0.00023846233974640963 0.0000000000000000 1.2333918691931345e-08 9.9207897452657789e-10 3.6843900856453615e-05 -0.019284801094811180 -4.7193105285562079e-08 1.6176107393045544e-07 -9.4879993375867377e-08 0.0000000000000000 -44.946335306532468 -98.969717126470769 68.015559797458934 339.42980011114588 0.0000000000000000 0.0000000000000000 0.0000000000000000 0.0000000000000000 3.1779537054294127 3.3632189245634412 1.1853528506271023 1.0885584047166119 1418.7287521062804 1418.6967990563355 1.0887566374901387 
-36.286374045667294 -101.00679938791437 67.847224911271610 -36.286374045667316 -101.00679938791433 67.847224911271567 -354.67542534404345 3.0557412147933606e-05 7.8607963531837489e-05 -0.00011694114127764871 0.0000000000000000 -1.6148691185041285e-05 2.1973506609074716e-05 6.4129910787534756e-05 -0.0042584254616240694 1.7315658610453291e-08 4.6041020870495345e-08 8.6123228837078315e-08 0.0000000000000000 -35.672109309640206 -100.83293553867907 75.360366609178811 338.44965823895870 0.0000000000000000 0.0000000000000000 0.0000000000000000 0.0000000000000000 3.1680747307570432 3.3426539018903010 1.1746523207514736 1.0865991854020749 1604.2478465370366 1604.2414249124781 1.0838510075368726 
-49.787447799178544 -112.30935673393262 57.312812783729171 -49.787447799178537 -112.30935673393263 57.312812783729179 -265.52591267835794 0.00037553158132133348 -3.7014542095577657e-05 -0.00015347355655215297 -169.41694524859048 1.3230039980216544e-08 1.7217608450081912e-09 3.7565844831277673e-05 0.012742576794738152 -4.6707160549424997e-10 -4.7695022846735147e-08 3.0246850422030782e-08 0.049377337042337412 -48.975793059600008 -111.99207679200002 65.383142959360015 326.57209562220959 0.0000000000000000 0.0000000000000000 0.0000000000000000 0.0000000000000000 3.1685174328499648 3.3431799982564763 1.1747236354059409 1.0854608363051272 1413.0405562318933 1413.0603334454231 1.0838471430788241 
-25.727344323474739 -110.78355769913478 59.522259094595086 -25.727344323474757 -110.78355769913472 59.522259094595043 -484.20116869917933 -2.5307728309240956e-05 9.8790974945578758e-05 -0.00029836611521350491 0.0000000000000000 7.9513015893706296e-09 1.6371389799374469e-09 3.6993615628588827e-05 0.0044428350455567589 4.5334576554728169e-08 -4.2984771237719116e-08 -6.6445374373228925e-08 0.0000000000000000 -25.239536857883341 -110.48187134057846 67.469656361758609 349.35568362690350 0.0000000000000000 0.0000000000000000 0.0000000000000000 0.0000000000000000 3.1656470398135776 3.3375943806742292 1.1720164323770232 1.0835540396151657 1813.9916339009562 1813.9899091445859 1.0825950454820079 
-44.820654808503278 -111.57841128361538 69.034248931382123 -44.820654808503285 -111.57841128361541 69.034248931382095 -221.30818341200734 0.00038934414704504201 -0.00023686263114852693 -8.1466917867694402e-05 0.0000000000000000 1.2140334987309488e-08 1.6812150560596706e-09 3.4530085153861023e-05 -0.020106042059312681 -1.4375002367921942e-07 -1.3618446758406450e-07 2.0957085498901543e-07 0.0000000000000000 -44.075852747763513 -111.26860156453857 76.452402029906395 268.59635586333832 0.0000000000000000 0.0000000000000000 0.0000000000000000 0.0000000000000000 3.1849224946635721 3.3773679276382178 1.1925276445234807 1.0941379177234232 1420.5843000979992 1420.5940099567226 1.0919723016960994 
-59.219695158997744 -106.13466168982680 99.882814577353884 -59.219695158997702 -106.13466168982679 99.882814577353955 -976.54433472906510 5.1400375361104242e-05 -2.6504684812478828e-05 -0.00020130374061940419 0.0000000000000000 1.2283311914648399e-05 8.6106224346971124e-06 8.3749001234053848e-05 -0.13238382751486352 -3.0601108099826193e-08 1.0016812253462783e-08 6.4648909758562579e-08 0.0000000000000000 -58.254647241440821 -106.62760994408018 105.33920711112118 241.62621693813244 0.0000000000000000 0.0000000000000000 0.0000000000000000 0.0000000000000000 3.0238469524736318 3.0433524719094733 1.0195812248089053 1.0315594527404861 2186.8858601212346 2186.8873569505308 1.0102096353024270 
-65.499642014436986 -90.064288223729577 91.023673067832405 -65.499642014437015 -90.064288223729577 91.023673067832362 -534.10285691258071 -0.00054948131452306774 -0.0012418900195701422 0.00065834981678825717 0.0000000000000000 0.00014068160887283109 5.0336466266462391e-05 0.00011051347609398198 -0.19202810542004983 6.5415582175757585e-07 4.7755611049786883e-07 1.9701640919818853e-07 0.0000000000000000 -64.370648572599308 -90.090304358695661 96.688480747766732 239.98138923263960 0.0000000000000000 0.0000000000000000 0.0000000000000000 0.0000000000000000 3.1617605370965749 3.3206704669794274 1.1588665935936833 1.0748931685300791 1837.3919320871144 1837.3912131335192 1.0762179685083155 
-76.831344045573459 -99.509843279020515 95.697004439167074 -76.831344045573445 -99.509843279020515 95.697004439167046 -752.98034157662016 0.00046299883866070767 -0.00018553698666216867 0.00058545457769866723 0.0000000000000000 8.8811769992000079e-05 2.0344720365882377e-05 9.1411560844454614e-05 -0.065687492499833466 -2.1755509000258549e-08 -3.3601932952865879e-08 3.2787593631814946e-08 0.0000000000000000 -75.913673002404863 -99.702254402691466 101.32606574872912 288.13617662859207 0.0000000000000000 0.0000000000000000 0.0000000000000000 0.0000000000000000 3.0846074737212454 3.1643612328041830 1.0797617654474294 1.0542670498483924 2038.0052985879829 2038.0046347223977 1.0394247475818017 
-56.205478993400632 -93.322241398613329 98.064978018477234 -56.205478993400661 -93.322241398613329 98.064978018477191 -917.79115966061283 7.8989519381329258e-05 -0.00035770811760739549 0.00055356822669341702 0.0000000000000000 2.6683605207077821e-05 5.3979586401758748e-05 3.0138823627291123e-05 -0.18147581862386006 -1.7984699248742263e-07 3.4243970529353813e-07 -5.1471466302661871e-07 0.0000000000000000 -55.164710769962618 -93.586508083202432 103.32606452766413 222.68531933077850 0.0000000000000000 0.0000000000000000 0.0000000000000000 0.0000000000000000 3.0702312214773433 3.1353508105580357 1.0651267733716887 1.0414477747391624 2185.6307297474118 2185.6240516308262 1.0324697205327746 
-46.530595563385866 -176.87292135397280 152.89710533213548 -46.530595563385852 -176.87292135397277 152.89710533213557 -49.545652496583799 -4.3572624378311758e-05 -7.4472931778841206e-05 1.2806915793321035e-05 0.0000000000000000 1.2515494668408069e-08 5.3024277191227043e-09 1.2810265650031736e-05 -6.0656705659613022e-05 -6.8758871939932014e-10 2.2143542629906937e-10 -1.2718345893085613e-09 0.0000000000000000 -45.762777822239421 -175.89580528354742 155.64915507299250 248.91339099022119 0.0000000000000000 0.0000000000000000 0.0000000000000000 0.0000000000000000 3.1832544787873478 3.3744735429631980 1.1913177822948093 1.0907033695746577 1069.7457840498944 1069.7435277894649 1.0914591460076000 
-52.280709313042550 -186.63974388291939 166.13840605024495 -52.280709313042543 -186.63974388291942 166.13840605024498 -48.629193331049869 1.0862346699303673e-05 2.4260853510394073e-05 2.6898070588338589e-05 -58.478347480541025 1.3777057300545792e-08 5.8440984274099605e-09 9.3808730206035307e-06 -0.00052566704790621866 4.2035733321177345e-09 5.6538625310717937e-10 6.3197333436804105e-10 -0.00061802456509735758 -51.435495451599998 -185.56281141599996 168.15371392000000 294.81703600272857 0.0000000000000000 0.0000000000000000 0.0000000000000000 0.0000000000000000 3.1683362233087071 3.3430673569745157 1.1748011621156276 1.0853187287598820 1030.8239525489278 1030.8374125250614 1.0838903859460109 
-43.400147711959100 -172.08160795293654 164.12598435317832 -43.400147711959100 -172.08160795293648 164.12598435317835 -35.471779469931612 5.9298484448638771e-05 -4.0530069243091512e-05 2.1502773283365670e-05 0.0000000000000000 -1.1558189445951943e-06 5.7161328594086969e-06 7.2114864734030325e-06 -3.1368032093945023e-05 8.9484888220331978e-10 -4.5085226819031370e-09 3.8796450575854299e-09 0.0000000000000000 -42.672974891599750 -171.18173466392949 166.26923354793541 271.88244999766295 0.0000000000000000 0.0000000000000000 0.0000000000000000 0.0000000000000000 3.1764740502077298 3.3601537644986341 1.1837642620309063 1.0881241727457662 1018.6408884340501 1018.6380924658487 1.0880092068015594 
-60.336377500873397 -179.01640576188936 155.12237990976138 -60.336377500873375 -179.01640576188944 155.12237990976143 -61.437098978372234 4.6172144596734501e-06 3.0514823104038534e-05 3.2226410984805494e-06 0.0000000000000000 1.5544448089821472e-08 5.4213126210456153e-09 1.2233937077610335e-05 -0.0023587268206248890 -1.3491512715325438e-08 1.2611644583916957e-08 1.5180485471683978e-08 0.0000000000000000 -59.382734921100123 -178.01738339707751 157.75061606229067 243.94852352315442 0.0000000000000000 0.0000000000000000 0.0000000000000000 0.0000000000000000 3.1769383332946011 3.3611880963316318 1.1843368864467967 1.0877286320245003 1039.1349614125020 1039.1368834163329 1.0882678197372326 
-31.397884423192789 -102.85335526432341 89.030565480103760 -31.397884423192782 -102.85335526432344 89.030565480103803 -132.43399905594899 -5.9356809241977837e-05 -0.00010163307542613780 -0.00091676356910574844 0.0000000000000000 -5.2243523546515570e-05 3.2021400758962180e-05 0.00010992618687925069 -0.059050933934447269 -1.7081330580014928e-07 6.1113536770601272e-08 5.0173087886174325e-07 0.0000000000000000 -30.660097366607719 -102.72526557899965 95.328291536857705 204.58703120518373 0.0000000000000000 0.0000000000000000 0.0000000000000000 0.0000000000000000 3.2233823172022564 3.4556633327969464 1.2322176720217264 1.0988454932210019 1200.0152310502019 1200.0178969175795 1.1101193938148388 
-19.204228340117481 -111.21201631367106 86.931691724228784 -19.204228340117478 -111.21201631367104 86.931691724228756 -216.49096760332196 3.5713336425171414e-05 6.2591281413138111e-05 -5.3674605178092981e-06 0.0000000000000000 6.5201433419037613e-09 1.6608988628874497e-09 2.9894788394102537e-05 0.0012837391678886029 2.7179229496103632e-08 -1.8753700889831137e-08 -2.0335816854330826e-08 0.0000000000000000 -18.804221549666405 -110.90595113131390 93.354036648627854 267.24800799435923 0.0000000000000000 0.0000000000000000 0.0000000000000000 0.0000000000000000 3.1773426900133188 3.3624608652150800 1.1852065730534604 1.0897770920416290 1332.7235367646208 1332.7232079284952 1.0886762163086343 
-34.530807125566092 -104.95759290644443 78.083978555697328 -34.530807125566078 -104.95759290644445 78.083978555697300 -294.66003864094080 -0.00017682968346529294 -0.00040148456353912213 7.6472156149445732e-05 0.0000000000000000 -3.9700949976955969e-05 2.2095643854323417e-05 6.7539249917719093e-05 -0.0051453092777716397 -2.5533073496395732e-08 6.4035129467069011e-08 -6.2120676702821227e-08 0.0000000000000000 -33.815892125380543 -104.71065599625929 85.007910193808286 270.69679205096202 0.0000000000000000 0.0000000000000000 0.0000000000000000 0.0000000000000000 3.1817365702758926 3.3700002203603638 1.1883278175553762 1.0904266951709884 1602.3634878686719 1602.3614918433354 1.0900729216012228 
-19.322786294323656 -100.57705762492709 89.096148797139051 -19.322786294323652 -100.57705762492714 89.096148797139023 -177.19381682775693 0.00022788259683351224 -0.00017754089680764633 0.00029446153777901710 0.0000000000000000 6.5461540355027381e-09 1.0710917708323109e-09 2.9334211056664117e-05 0.0073863580757110615 2.1194060680605143e-07 -9.8802452167696667e-08 -1.0696631964716988e-07 0.0000000000000000 -18.921183722278450 -100.37968114352928 95.398064000337470 185.31956687594098 0.0000000000000000 0.0000000000000000 0.0000000000000000 0.0000000000000000 3.1641161191092952 3.3347355128824172 1.1707003248958812 1.0883681324091465 1291.4913507591411 1291.4913568226684 1.0820790782108569 
-31.695311286650654 -118.30802632468139 171.47505276128612 -31.695311286650647 -118.30802632468144 171.47505276128607 -129.12402932259045 6.2097019684423672e-05 0.00020620081615768527 -0.00014158090736378001 0.0000000000000000 -8.5818510216908511e-06 4.2179472036627339e-06 -4.3391537195498254e-06 0.00013765414642486076 1.0696991758350135e-08 6.2711873960262199e-09 -5.1418437323941022e-09 0.0000000000000000 -31.124431206993112 -117.97934695114738 173.21200361760444 258.17126679857051 0.0000000000000000 0.0000000000000000 0.0000000000000000 0.0000000000000000 3.1808456802097087 3.3686724267328021 1.1879014053357404 1.0903662274752839 1251.2249731930895 1251.2172912400174 1.0899016485383735 
-31.229060642852041 -133.60933348657707 162.57013309141882 -31.229060642852026 -133.60933348657716 162.57013309141891 -89.225675708884836 1.9146764990004369e-05 0.00012846531637368414 -3.5787475174413287e-05 0.0000000000000000 -1.0748034528547232e-05 6.5497700262525935e-06 1.4174993275018437e-06 -0.0010008161802134994 -8.1638449019888480e-09 5.9953964689601831e-09 -2.1252811561220021e-09 0.0000000000000000 -30.642131568542830 -133.13454878399213 164.80820313575899 262.24283076768535 0.0000000000000000 0.0000000000000000 0.0000000000000000 0.0000000000000000 3.1891974151986360 3.3864044871225469 1.1972997902370883 1.0926844019795954 1216.2569797837784 1216.2653907253452 1.0942064705245516 
-43.419074602173993 -120.31455855160297 161.25877310979845 -43.419074602173978 -120.31455855160299 161.25877310979843 -63.437093054543212 0.00024506526735454832 3.5805459072312588e-05 -4.7002266495981663e-05 0.0000000000000000 -2.2914930997593123e-05 2.4934551251987886e-05 -4.6869413333492956e-05 0.00027554063607613909 -6.9295370759872127e-09 5.5902963996043646e-09 -2.0238754389535038e-08 0.0000000000000000 -42.676694985445003 -120.10595080876966 163.70375490782192 268.28772502602959 0.0000000000000000 0.0000000000000000 0.0000000000000000 0.0000000000000000 3.2019920181025774 3.4127366662067726 1.2108431943970575 1.0997715086337345 1252.0824393187797 1252.0730335730250 1.1003628270365200 
-24.214771674155138 -114.57439597779043 159.42386887376435 -24.214771674155141 -114.57439597779047 159.42386887376423 -182.36404062440218 -9.0894359815558151e-06 -6.9967523914371470e-05 8.4997237095559046e-05 0.0000000000000000 7.6194450471245273e-09 1.8473794716200587e-09 1.1119885281019036e-05 0.00092314674625978987 -3.8838105830576257e-09 -1.6143856893812141e-08 2.4898048047554586e-09 0.0000000000000000 -23.747323328369049 -114.23396745764113 161.81277151251504 321.01516800445251 0.0000000000000000 0.0000000000000000 0.0000000000000000 0.0000000000000000 3.1756773800281626 3.3575698481803187 1.1819424717117928 1.0883881211191702 1351.6207199481580 1351.6214990787003 1.0871736315967899 
-6.6950825706168331 -105.23250769257787 103.85051249468100 -6.6950825706168331 -105.23250769257787 103.85051249468098 -49.475384187685798 2.2993434528378196e-05 8.9243969758916237e-07 -0.00018546450272195812 -15.984497617271408 3.7756624771123626e-09 1.3292792422348043e-09 2.5512947029682213e-05 0.0045349321925020752 1.6050021752691412e-08 -4.2729771983911290e-08 7.7359945085133480e-08 0.036539083095578705 -6.4634479885999987 -104.98755276399999 109.33149947120000 327.67017865987640 0.0000000000000000 0.0000000000000000 0.0000000000000000 0.0000000000000000 3.1771545176341998 3.3621443437413983 1.1851074173241591 1.0890588066960560 1033.4094004089729 1033.4094358442851 1.0885973558450937 
-12.111375937812337 -97.280567066289990 95.491609588974043 -12.111375937812339 -97.280567066290004 95.491609588974043 -139.16202572260602 0.00022064705095460108 -0.00043009438552167459 -0.00042205830341957029 -101.79756044894543 4.9639866106510055e-09 8.8826568322986077e-10 2.7677837067585642e-05 0.0094820722618336774 1.8468005980398078e-08 -3.7683521423007425e-08 -6.8716569247427592e-08 0.048681871876647950 -11.806838433999999 -97.116880539599975 101.43768333439998 212.90238721710071 0.0000000000000000 0.0000000000000000 0.0000000000000000 0.0000000000000000 3.1516022211566139 3.3076404725961623 1.1560893352871806 1.0844482845501637 1080.9884839246918 1080.9880139063130 1.0753364813190289 
-16.209299907102540 -110.66053183253260 97.249141462313673 -16.209299907102544 -110.66053183253261 97.249141462313673 -171.86641605884057 -0.00015034112194778308 4.4979013814794609e-05 -0.00047820519280466123 0.0000000000000000 5.8630635901835140e-09 1.6303115524252123e-09 2.7222650153646551e-05 -0.0053168450657222806 1.6867160153395267e-08 -1.8674981072996476e-08 -8.7025063933413080e-08 0.0000000000000000 -15.849604639409371 -110.36010279166017 103.09742667861765 236.22178992679409 0.0000000000000000 0.0000000000000000 0.0000000000000000 0.0000000000000000 3.1769976259886836 3.3614728915551471 1.1845681540572135 1.0890433920739246 1385.1670622984266 1385.1672362997049 1.0883594825423966 
-24.217057770875087 -99.722859078646053 96.385509506349379 -24.217057770875090 -99.722859078646067 96.385509506349365 -100.52538386635899 5.7613251026272874e-05 -0.00015260547288988233 -1.0614002333615904e-05 0.0000000000000000 7.6199465348647522e-09 1.0237078962305191e-09 2.7446324022406543e-05 -0.056749524799415717 -4.7709499762760029e-07 -1.8516520546010518e-07 2.0647566223278206e-07 0.0000000000000000 -23.749578654390465 -99.534212460059550 102.28184693721489 211.57004919854941 0.0000000000000000 0.0000000000000000 0.0000000000000000 0.0000000000000000 3.2112691913477907 3.4327102014719872 1.2214845053620211 1.0961128790333849 1251.9619032290836 1251.9618846771853 1.1051510132528255 
-55.054938676816661 -107.65199998052330 108.65797230733622 -55.054938676816640 -107.65199998052326 108.65797230733624 -683.08439689157319 0.00054542957275160303 0.00099388706901733844 -0.0010808833121258891 0.0000000000000000 -5.7072331597989178e-05 -1.3433659438540217e-05 3.5342799015433618e-05 -0.32420850654412647 -6.4400603787969992e-07 -7.0056942521031930e-07 5.3694008070290808e-07 0.0000000000000000 -54.087034329299712 -108.37170302860723 113.84396407125838 191.01171882188567 0.0000000000000000 0.0000000000000000 0.0000000000000000 0.0000000000000000 3.1144570740825865 3.2292348659218812 1.1147567800786364 1.0504618351132509 1568.2044922980940 1568.2040636058412 1.0555155366098985 
-42.820274352467187 -107.33557609448543 105.79071343075090 -42.820274352467180 -107.33557609448550 105.79071343075097 -782.45742183712503 -0.00045370770717177548 0.00012942225882503578 0.00013273040032331623 0.0000000000000000 -2.6203094718624060e-05 6.0765744513878823e-05 3.4681950462631921e-05 -0.11175218717113600 7.2541210008591344e-08 7.9533554763802391e-08 -1.0590480765533246e-07 0.0000000000000000 -41.690910404717421 -107.74885629568415 110.97670241767709 270.34727434602189 0.0000000000000000 0.0000000000000000 0.0000000000000000 0.0000000000000000 3.0508176617500502 3.0972615097328888 1.0463665398353852 1.0468037316918326 2202.3236261752741 2202.3241734043254 1.0235411283327158 