# For a description of the Tecplot format see the Tecplot User's guide.
#
Variables=x,y,z,s_u,s_v,s_w,s_p,mono_f_vel_u,mono_f_vel_v,mono_f_vel_w,const,u_nu,v_nu,w_nu,p_nu,x_nu,y_nu,z_nu,const,u_ref,v_ref,w_ref,vol_ref,x_ref,y_ref,z_ref,const,I1,I2,I3,J,p1,p2,p3
Zone f=fepoint, n=356, e=1130, et=brick, c=black
-66.7953 -97.6854 85.8934 -66.795303731596263 -97.685418635507020 85.893448383796752 -1269.8336880267350 -4.3040706866444894e-14 1.6944251018348649e-14 3.6119231429670957e-13 5.2323914834318342e-28 2.2830295987041896e-10 9.3048901916858995e-12 1.6782978402574143e-06 0.043600042022506461 1.5388171358838309e-18 3.1241522570150287e-19 -6.8249025628104451e-18 -5.4336794159232893e-29 -65.754724465942431 -97.517594547729473 92.373562431030237 2074.8615187338191 0.0000000000000000 0.0000000000000000 0.0000000000000000 0.0000000000000000 3.1697236434820160 3.3467494605301669 1.1771336215318937 1.0844483001811469 2801.9897420194170 2082.9745275707251 1.0849502447170112 
-76.924015547149963 -131.06920430662038 71.609614471217398 -76.924015547149992 -131.06920430662038 71.609614471217384 -479.16552136086227 -7.5494562327334262e-14 -4.2536915381587778e-15 1.2164297235951785e-14 127.83049587641175 2.5820592886027782e-10 2.8235969118384222e-11 1.8841313060846689e-06 0.0022339328074287034 2.0578339832575282e-19 3.3175605915454977e-18 -2.0648651966314490e-18 -0.081229476465855627 -75.747104543999981 -130.56019973999997 78.884476808000016 2128.8259272129790 0.0000000000000000 0.0000000000000000 0.0000000000000000 0.0000000000000000 3.1695633077199594 3.3463815859234654 1.1769114910828808 1.0844483001811467 1216.0786054350708 1528.1694427822256 1.0848322495197260 
-64.431031067283271 -122.21311396770554 63.515408312633625 -64.431031067283257 -122.21311396770555 63.515408312633618 -55.435102607881660 4.8272640460904432e-14 3.4070575355093276e-14 -2.6892559012657752e-14 790.19607290149349 2.2131543819803310e-10 2.3206436772227335e-11 2.0007707473013170e-06 0.00024682781005326993 -1.5003438863445057e-19 -2.0629997873714517e-18 1.4957443497997095e-18 0.019439647370725229 -63.422274742800013 -121.79461816400000 71.240629883439979 1237.7701333319521 0.0000000000000000 0.0000000000000000 0.0000000000000000 0.0000000000000000 3.1706020466449760 3.3469531623621132 1.1763912639657661 1.0844483001811467 95.491050302767349 151.51476410247184 1.0846218799706311 
-57.061886286547029 -132.60423973342293 69.234397455763272 -57.061886286547036 -132.60423973342293 69.234397455763286 -317.32967876963642 7.6087397828587816e-14 -3.6032997909274599e-14 -2.1342257747480946e-14 35.285907467436694 1.9955906371826868e-10 2.9106828058900192e-11 1.9183587518512013e-06 0.0016093889074078396 -2.3627906630754031e-18 3.9525543199333956e-18 -2.1040770750242361e-18 -0.095221759364148215 -56.152318124399997 -132.07954718800002 76.641416164000006 2090.5778096190215 0.0000000000000000 0.0000000000000000 0.0000000000000000 0.0000000000000000 3.1657195441052397 3.3393090325520065 1.1737189166478943 1.0844483001811467 769.68747531678503 1282.8709622160152 1.0833655874142012 
-124.71808142774917 -110.68811426384090 82.540769280144929 -124.71808142774918 -110.68811426384090 82.540769280144914 -1176.9954737950038 -6.7398561104624481e-15 -7.9401392581018687e-15 3.3998330625216202e-14 -903.97302989126069 3.9935213469455288e-10 1.6681878101110215e-11 1.7266107406044284e-06 0.0017972036636537685 -1.8750128243197585e-20 1.7391149292872222e-19 -7.0564973029001995e-19 -0.0027263363746104462 -122.89786571200003 -110.38740333199999 89.207425400000020 2092.2379289329847 0.0000000000000000 0.0000000000000000 0.0000000000000000 0.0000000000000000 3.1702295203057256 3.3468993030298462 1.1767376300761947 1.0844483001811467 2789.6599142894966 2837.1598355544802 1.0847802846878223 
-124.58828423480415 -128.99188959089798 87.067130227003190 -124.58828423480415 -128.99188959089796 87.067130227003190 -1146.5030934720817 2.1443959681898899e-15 -2.3886364293525851e-14 -2.2372069113272159e-14 -1906.2926270659673 3.9897066206329162e-10 2.7049806838874701e-11 1.6613848039526147e-06 0.0013998823560415611 6.0290385430490056e-21 -6.2039760978500533e-19 1.3278593721546857e-20 0.0011669971512374938 -122.76981557999994 -128.50411506799998 93.481940963999989 2295.0048277193882 0.0000000000000000 0.0000000000000000 0.0000000000000000 0.0000000000000000 3.1705073618159214 3.3468678895387645 1.1764007656773463 1.0844483001811471 3550.4468543244202 3444.9006169964928 1.0846229738012456 
-88.668942057479072 -119.94852236986360 102.45297113394724 -88.668942057479086 -119.94852236986354 102.45297113394732 -691.28174850625328 6.2607060778739539e-14 1.3027156081374479e-13 -1.0767704339856499e-13 9.0932918070748549e-29 2.9288929614956766e-10 2.1920132375896628e-11 1.4396711485176186e-06 0.0084656184632213149 -6.3331130462775288e-19 -7.6252982653216194e-19 8.5654093958525883e-19 -9.9339471600362216e-30 -87.333945182495114 -119.55317056945796 108.01171823852533 1853.2119812635015 0.0000000000000000 0.0000000000000000 0.0000000000000000 0.0000000000000000 3.1676513218033207 3.3433973883757906 1.1759140275411579 1.0844483001811469 2022.6813958132930 2209.7349812655975 1.0843950190631795 
-123.70337113975830 -119.33840781070326 101.42152075197438 -123.70337113975827 -119.33840781070327 101.42152075197440 -466.19043487649560 -1.4229336650858692e-14 -1.1464239378138185e-14 -1.4532989153731780e-13 -404.03487296740462 3.9636141591081753e-10 2.1574853015238201e-11 1.4545345905503382e-06 0.00072726879625277681 -2.7729827216645917e-20 1.3902643003963005e-19 -1.7017252227421764e-19 0.0081114781861613347 -121.89681335200000 -118.94929134799999 107.03765745040002 1571.7251237143605 0.0000000000000000 0.0000000000000000 0.0000000000000000 0.0000000000000000 3.1702093792225940 3.3462813803561242 1.1760969852561578 1.0844483001811471 1459.6640513902491 1533.0075142549363 1.0844874117226084 
-44.921665405713419 -164.47472983857702 119.01248850225625 -44.921665405713412 -164.47472983857699 119.01248850225625 -104.04172992755552 3.6679203801572592e-15 2.0280513246212966e-14 -1.4874105461580972e-14 0.0000000000000000 1.6370962918621501e-10 4.7166159866662831e-11 1.2010445438193074e-06 0.022315809845141529 -1.0212325524891173e-18 -4.2319692218640866e-18 9.9861078471007148e-18 0.0000000000000000 -44.175503749389662 -163.62432261291502 123.64986896362305 1288.7765825848380 0.0000000000000000 0.0000000000000000 0.0000000000000000 0.0000000000000000 3.1877870648416096 3.3854185897807052 1.1977855619608173 1.0912624577861747 903.10523350726419 1873.1898549859470 1.0944305970788892 
-15.832856201991365 -144.51114896797668 132.15696225420143 -15.832856201991369 -144.51114896797665 132.15696225420146 -155.92889897796181 -9.4564442335206869e-16 -2.1778468219987398e-14 -2.0192692704998139e-14 297.82272240814393 7.7805345499726299e-11 3.5857206093226068e-11 1.0116295197093450e-06 0.014690957553726226 -5.0414824683949322e-19 9.3941319850234200e-18 7.7986611283061175e-18 0.012209881047181311 -15.478227839600008 -143.86476845600004 136.06298808800005 1207.7015194609139 0.0000000000000000 0.0000000000000000 0.0000000000000000 0.0000000000000000 3.1682274192335078 3.3425920511725384 1.1744224580669438 1.0861701468277125 1318.9198196166221 1248.6318835663083 1.0836950993195278 
-44.921665405713419 -164.47472983857702 135.57200587056522 -44.921665405713405 -164.47472983857708 135.57200587056525 -260.22957659802779 1.6979167768457828e-14 -7.9475144625328332e-15 1.4295777473337994e-17 0.0000000000000000 1.6370962918621499e-10 4.7166159866662844e-11 9.6241792668649850e-07 -0.0052644232694619188 1.2062694074477291e-18 4.0712177922505786e-18 -9.2021454812879476e-19 0.0000000000000000 -44.175503749389669 -163.62432261291511 139.28801968872074 2260.0113226803110 0.0000000000000000 0.0000000000000000 0.0000000000000000 0.0000000000000000 3.1674970140070715 3.3412030527883338 1.1737708667684545 1.0871788296176337 1361.0200710447705 1273.3059283455566 1.0834406763862896 
-6.1055731646135794 -162.28677575358662 126.18721512005962 -6.1055731646135785 -162.28677575358660 126.18721512005961 -615.04166969067740 3.1354695373587454e-14 -6.3697142236111740e-15 4.0812226427752961e-14 -958.86564943328278 4.9079490471726217e-11 4.5920045543823569e-11 1.0976550104402349e-06 0.0037135949097720244 6.3932999542002143e-19 -1.5307289750799510e-19 -3.8815445918463490e-19 -0.036799715838137563 -5.8818733370400009 -161.45872929999999 130.42539591680000 1840.5999298976626 0.0000000000000000 0.0000000000000000 0.0000000000000000 0.0000000000000000 3.1674591037482056 3.3410132363392502 1.1736153048962532 1.0844483001811487 2018.5009778490387 1876.0507788998077 1.0833360821169278 
-10.057561316590187 -107.37582912134084 181.84785801308681 -10.057561316590187 -107.37582912134086 181.84785801308681 -262.87783714553427 1.2191002348026280e-15 1.2172974378516802e-14 -1.2374206096704318e-15 -277.23746920522746 6.0749405506044241e-11 1.4797385539111471e-11 2.9557183012229871e-07 0.00050036798936332547 -5.8993211193918771e-20 1.3672787024695025e-18 -1.2343000305863884e-18 -0.019814097967628407 -9.7806680107999995 -107.10896956400003 182.98909712000000 1021.2952016557671 0.0000000000000000 0.0000000000000000 0.0000000000000000 0.0000000000000000 3.1697809624701412 3.3459792422817114 1.1762664704610317 1.0844483001811478 1267.3133810027718 1255.7915992500932 1.0845583732212278 
-17.948876570595541 -108.91987408512263 192.86570755530494 -17.948876570595537 -108.91987408512264 192.86570755530491 -295.58671456810663 -2.1221832435726221e-14 2.4996588672942960e-14 7.8243189408013631e-15 -366.94680783694781 8.4051793303174791e-11 1.5681345111318024e-11 1.3680197064047661e-07 0.00027211061975141332 5.5664559792657979e-19 1.7817363618530985e-18 -1.8821986276332685e-18 -0.024254160354878675 -17.565766725200003 -108.63723447200002 193.39391677600000 1230.2822850381203 0.0000000000000000 0.0000000000000000 0.0000000000000000 0.0000000000000000 3.1697811079078728 3.3459436147922803 1.1762295837358359 1.0844483001811471 1435.5043974349067 1425.7954654616137 1.0845382470591933 
-44.921665405713419 -119.94852236986360 168.69104060718323 -44.921665405713490 -119.94852236986361 168.69104060718337 -424.74663421545006 -1.1878329139138946e-14 1.7297959798954220e-14 2.3230467418126475e-14 0.0000000000000000 1.6370962918621501e-10 2.1920132375896628e-11 4.8516471551351970e-07 0.027590251754527142 2.5712309720153070e-18 -1.1853396638563087e-18 1.2288297425171001e-17 0.0000000000000000 -44.175503749389591 -119.55317056945772 170.56432113891603 1872.3464537223574 0.0000000000000000 0.0000000000000000 0.0000000000000000 0.0000000000000000 3.1684823613693780 3.3435886243362907 1.1751862732788116 1.0844483001811485 1675.7979834236614 1711.2763596547477 1.0840776356599373 
-9.6026095762647365 -124.84247620717797 188.06956303849569 -9.6026095762647383 -124.84247620717795 188.06956303849572 -347.89365208045598 1.3511278388998188e-14 -8.0180236442033892e-14 -3.5732017847120239e-14 -397.92602051652000 5.9406535246608883e-11 2.4697466294298920e-11 2.0591555305315978e-07 0.00036565115715692982 1.5631667515438304e-18 1.1257438462575903e-19 -2.1457215738849812e-18 -0.0071301856576978647 -9.3318398883999993 -124.39710846400000 188.86462832000004 1016.3527334425750 0.0000000000000000 0.0000000000000000 0.0000000000000000 0.0000000000000000 3.1698116426281948 3.3459856010938043 1.1762402024450491 1.0844483001811491 1716.0873653377384 1709.6626067940228 1.0845406965369808 
-44.921665405713419 -164.47472983857702 102.45297113394724 -44.921665405713412 -164.47472983857699 102.45297113394730 -360.53875606350994 -1.5044525207050511e-14 -3.2834783133473493e-14 5.5848073186814985e-15 3.6924233114798798e-27 1.6370962918621501e-10 4.7166159866662831e-11 1.4396711485176183e-06 0.00094519559972408931 1.0536474883233784e-18 3.2513415902591278e-18 3.9371046255391262e-18 -3.8833765158875710e-28 -44.175503749389662 -163.62432261291499 108.01171823852535 1450.3671205666894 0.0000000000000000 0.0000000000000000 0.0000000000000000 0.0000000000000000 3.1732624115094179 3.3530151875549588 1.1798204046616865 1.0876146346608171 233.71137768842257 1216.0466593758754 1.0861772384070323 
-62.131459018576869 -161.77768949564296 79.147315920810200 -62.131459018576855 -161.77768949564293 79.147315920810186 -1859.2399467065709 -7.3321783589790440e-14 -2.3368059997502273e-13 -4.7646782951414148e-14 653.17125041642487 2.1452664644705521e-10 4.5631165512816096e-11 1.7755112118322813e-06 0.0011647620101220401 6.4738687167429009e-19 -2.2628055657937093e-18 -4.3244868740541703e-19 0.014255223405870659 -61.153654769600031 -160.95484587600001 86.002782780800032 1645.6757988676138 0.0000000000000000 0.0000000000000000 0.0000000000000000 0.0000000000000000 3.1478041717006540 3.3010396374230866 1.1532997402394327 1.0798718777406666 3967.1476394647234 3880.1374832375136 1.0739354783151716 
-44.979640504613535 -168.89721529111401 76.260289599099210 -44.979640504613521 -168.89721529111404 76.260289599099210 -3815.3957807556230 1.0904730792431867e-13 -4.3597035184193337e-13 -6.8206739146197554e-14 -861.24686263641718 1.6387816104135311e-10 4.9665049850489140e-11 1.8171139544165273e-06 0.00090185769589142559 -2.9456574073724626e-19 -3.0834625707609732e-19 -1.0923571882833254e-19 0.0011789006892798592 -44.232698507600013 -168.00161050399998 83.276389748800028 1737.4139093181343 0.0000000000000000 0.0000000000000000 0.0000000000000000 0.0000000000000000 3.1718258538550592 3.3502033911175015 1.1784478249168087 1.0844483001811471 7359.0705025830275 7173.8591649315676 1.0855673391347571 
-44.921665405713419 -186.73783357293368 102.45297113394724 -44.921665405713398 -186.73783357293362 102.45297113394732 -3530.0996394564886 1.9107619618910595e-14 -2.2097642109982750e-13 -2.8864294138101703e-13 3.5998940512296755e-28 1.6370962918621501e-10 5.9781846140083417e-11 1.4396711485176183e-06 0.00079293604574996062 -3.1866788932416142e-19 9.3510866572707076e-20 -3.0414003802077720e-19 -3.9355512013223854e-29 -44.175503749389676 -185.65989863464350 108.01171823852533 1616.4576808433910 0.0000000000000000 0.0000000000000000 0.0000000000000000 0.0000000000000000 3.1651163509436624 3.3363628294140297 1.1713097614330159 1.0835174921492150 7219.2986193564739 7201.5864474982354 1.0822673501494575 
-88.668942057479072 -142.21162610422033 135.57200587056522 -88.668942057479072 -142.21162610422027 135.57200587056519 -367.72868144871865 8.9687646573887917e-15 -4.2028161306819330e-15 9.8867412941552514e-15 0.0000000000000000 2.9288929614956776e-10 3.4550251548637334e-11 9.6241792668649850e-07 0.00047863000811692013 1.3168382218111651e-18 -1.2500065182282386e-18 5.0188344069204698e-18 0.0000000000000000 -87.333945182495100 -141.58874659118649 139.28801968872074 1877.7986991733408 0.0000000000000000 0.0000000000000000 0.0000000000000000 0.0000000000000000 3.1822914946749838 3.3713505065667175 1.1890616099178883 1.0891160557510557 1660.8752596729848 1663.2536190484846 1.0904629345148467 
-66.795303731596249 -164.47472983857702 135.57200587056522 -66.795303731596206 -164.47472983857710 135.57200587056528 -327.84191887700115 -5.4170170041387457e-15 3.8269151114393501e-14 4.8990595050231344e-14 1.8505136621725758e-28 2.2830295987041888e-10 4.7166159866662838e-11 9.6241792668649850e-07 -0.00029190948897733185 8.9085932539320324e-19 4.8052215209625529e-19 2.1650349955102689e-18 -1.8374435647273733e-29 -65.754724465942374 -163.62432261291517 139.28801968872077 2018.1238718776010 0.0000000000000000 0.0000000000000000 0.0000000000000000 0.0000000000000000 3.1675848533113435 3.3415211773752835 1.1739916783098612 1.0894565188120362 1385.5969829564256 1307.5475500190241 1.0835305757666449 
-88.668942057479072 -164.47472983857702 119.01248850225625 -88.668942057479086 -164.47472983857702 119.01248850225618 -441.46749299422237 -4.3902767343043777e-14 4.3788582074657061e-15 1.4203732831976676e-14 0.0000000000000000 2.9288929614956771e-10 4.7166159866662838e-11 1.2010445438193074e-06 -0.0045072868128427403 8.1991664282017481e-19 -1.8167704669216678e-19 -2.8080231859874946e-18 0.0000000000000000 -87.333945182495114 -163.62432261291505 123.64986896362312 1549.0027140339625 0.0000000000000000 0.0000000000000000 0.0000000000000000 0.0000000000000000 3.1715942520114742 3.3499234189550013 1.1784361725344032 1.0859695056491201 1267.5827275116851 2171.0818190834907 1.0855513817097877 
-88.668942057479072 -142.21162610422033 119.01248850225625 -88.668942057479057 -142.21162610422027 119.01248850225615 -310.08108687546513 -1.6922440424658294e-14 -1.0990906102031899e-14 3.9569643818079849e-14 0.0000000000000000 2.9288929614956776e-10 3.4550251548637334e-11 1.2010445438193076e-06 0.0083515706402403026 -3.5063420270449715e-19 -4.3545066918769654e-18 -7.3146205600398770e-19 0.0000000000000000 -87.333945182495086 -141.58874659118649 123.64986896362313 1389.1126189879024 0.0000000000000000 0.0000000000000000 0.0000000000000000 0.0000000000000000 3.1783048192357946 3.3628970687006294 1.1844917934684041 1.0901252168940825 1281.4486911994775 2533.6391041997717 1.0884212914541080 
-45.957741089009204 -110.63386736750263 39.802523075843993 -45.957741089009218 -110.63386736750265 39.802523075843979 -2232.0190345311939 8.2080996465133480e-14 1.9992101612280096e-14 -9.6149986107385049e-14 -1961.3899190438826 1.6676363068235387e-10 1.6639911670779384e-11 2.3424791031345649e-06 0.0010235818156526006 -8.0114217829356144e-21 -2.0924205585351788e-20 5.4958689606901724e-20 0.0016585432294190098 -45.197633928000002 -110.33371083599998 48.847122559999995 1069.0094105005942 0.0000000000000000 0.0000000000000000 0.0000000000000000 0.0000000000000000 3.1695821512733713 3.3455715116708737 1.1760577587807293 1.0844483001811471 5161.6703426761032 5164.0412500356388 1.0844618415889440 
-58.046453436047067 -99.012645808699546 37.027007766651913 -58.046453436047088 -99.012645808699574 37.027007766651899 -1747.5053936833719 1.7870161003012360e-14 1.2058386542764351e-14 -4.8514812633060407e-14 -747.21209161090167 2.0246163079384874e-10 1.0058953670011306e-11 2.3824749444401046e-06 0.00088625327755469877 -2.5720892416696468e-20 -1.2009297203616506e-21 4.5344315469096119e-20 -0.00071948767782760567 -57.123633070400032 -98.831257531200038 46.226036100800002 1475.5774262919704 0.0000000000000000 0.0000000000000000 0.0000000000000000 0.0000000000000000 3.1695409389876654 3.3454977804026571 1.1760258415131828 1.0844483001811471 3768.2650272329925 3771.5009819869015 1.0844471995411167 
-61.103610608399904 -105.83813825206019 48.712025834491484 -61.103610608399897 -105.83813825206018 48.712025834491477 -1222.0734621796851 -5.3036562384636924e-15 5.3488464692600664e-14 -4.9005601296146481e-14 -490.26791561176265 2.1149273998766207e-10 1.3932743847533402e-11 2.2140910349577325e-06 0.00067527323080981473 2.1053805672579430e-20 5.3817206493082816e-20 -5.4288693747481578e-20 0.0032717817718828156 -60.139641125599979 -105.58699381199996 57.260903223199996 1724.6135661994952 0.0000000000000000 0.0000000000000000 0.0000000000000000 0.0000000000000000 3.1694741623062521 3.3454191037943342 1.1760167347200841 1.0844483001811469 3244.6844094666876 3226.2510143607001 1.0844434597334280 
-19.814238339959665 -88.186805141871446 49.176015482735586 -19.814238339959669 -88.186805141871446 49.176015482735586 -1617.5046046515547 -1.0561418266896631e-15 -3.3767798624279589e-14 -1.2715707830038661e-13 -1571.5947530491590 8.9561663640935762e-11 3.9280800834262664e-12 2.2074048278142300e-06 0.00080926988911956220 -1.4010547935935287e-20 4.7008067374804027e-20 1.4130908845658835e-19 -0.00077410557537120801 -19.406020858399991 -88.116056368799974 57.699076624800000 1439.6451283969650 0.0000000000000000 0.0000000000000000 0.0000000000000000 0.0000000000000000 3.1694433894572787 3.3453093676898598 1.1759358147353818 1.0844483001811471 3727.9161522956783 3728.9824127363099 1.0844061829982701 
-59.721908774010451 -179.59324275565572 71.472701690221740 -59.721908774010451 -179.59324275565572 71.472701690221726 -8173.6118518862831 2.4930462050175343e-14 -2.2537854846810257e-13 -2.3361264860412632e-13 -9057.2658698941686 2.0741222628295475e-10 5.5721316449819369e-11 1.8861042452300580e-06 0.0025189541652441984 -2.3579103224852871e-20 4.3406330075420169e-19 2.2961779815510860e-19 -0.0010821411027095522 -58.776536899199989 -178.58832514800000 78.755181813599989 1584.4809985467919 0.0000000000000000 0.0000000000000000 0.0000000000000000 0.0000000000000000 3.1733493741725671 3.3533562741631404 1.1800797258464624 1.0844483001811462 16046.028383882682 16090.094435508568 1.0863252047401735 
-75.622773063878981 -186.01334396984240 64.558587909314511 -75.622773063878981 -186.01334396984245 64.558587909314511 -6208.4315858275177 5.1851682526827226e-13 -4.3093318592268545e-13 1.0641241251661298e-15 -6058.2578624845055 2.5436922013177821e-10 5.9371507710181959e-11 1.9857382831389714e-06 0.0022630817654948538 -2.7773844869039310e-19 3.6238055392100871e-19 2.2165899601717273e-20 0.00056936008578276260 -74.463376691600018 -184.94281327599995 72.225767276240006 1182.3928641350060 0.0000000000000000 0.0000000000000000 0.0000000000000000 0.0000000000000000 3.1713329712300826 3.3491422682504983 1.1778779188625652 1.0844483001811476 11924.725869481770 11922.843913065260 1.0853021610801701 
-70.831681933108840 -212.93412497555428 79.771532108676894 -70.831681933108840 -212.93412497555434 79.771532108676880 -8258.0171000109458 1.9459576033071599e-14 5.4855292351636466e-14 -3.0097792015832715e-13 -8561.4107097272354 2.4022275835200446e-10 7.4624639800902060e-11 1.7665161085034244e-06 0.0026247723471009583 -1.8807565919507098e-20 -1.7784406659421567e-20 7.5858473397444128e-20 0.0058513722970915342 -69.736773305200003 -211.58846536000007 86.592267764799999 1391.6778601551057 0.0000000000000000 0.0000000000000000 0.0000000000000000 0.0000000000000000 3.1679788732501888 3.3423479541906813 1.1744393326488523 1.0844483001811474 16928.422776967498 16929.942852869310 1.0837158982841779 
-88.141744935786136 -208.57502647329596 83.706323183833518 -88.141744935786150 -208.57502647329599 83.706323183833533 -4973.8958021958915 4.6579708377399909e-13 -2.3771463947475720e-13 -1.7198623692119070e-13 -5153.9971706813240 2.9133498391509249e-10 7.2161276953863775e-11 1.7098148266114779e-06 0.0019597258187114123 -2.9266709514102464e-19 1.4362083521335361e-19 2.7743947630222839e-19 -0.0023108361278199770 -86.813844096400004 -207.27391660800001 90.308128229600001 1955.0875990986240 0.0000000000000000 0.0000000000000000 0.0000000000000000 0.0000000000000000 3.1722580006249612 3.3511403627969591 1.1789563925800548 1.0844483001811471 9476.3501102934551 9529.5365600276837 1.0858078625895173 
-75.531784579377316 -213.94129637260374 94.665017149698912 -75.531784579377316 -213.94129637260374 94.665017149698912 -5923.9881087750309 -1.3775649166069842e-13 5.5061711337789390e-14 1.0237992936222535e-13 -7274.1476596770681 2.5409876980297952e-10 7.5189965365041202e-11 1.5518974354478132e-06 0.0019527475945059366 -1.4973801974111354e-20 1.6775579164448975e-21 1.0700157853345079e-19 0.0012446782647219700 -74.373612905599998 -212.58534351999998 100.65708370800000 988.41240310934302 0.0000000000000000 0.0000000000000000 0.0000000000000000 0.0000000000000000 3.1691301965260097 3.3447254770067785 1.1756674289101543 1.0844483001811476 13987.910828668138 13989.401726728602 1.0842897903622732 
-66.795303731596249 -186.73783357293368 102.45297113394724 -66.795303731596206 -186.73783357293362 102.45297113394732 -3048.7763666032897 8.4709484376690136e-14 -2.2027334659805635e-13 -1.1545147389046019e-13 6.6855112967621170e-28 2.2830295987041898e-10 5.9781846140083417e-11 1.4396711485176183e-06 0.0012283132803406736 1.5528308911240338e-19 3.4497142674733679e-19 -4.4064719646797864e-19 -8.2898751481400754e-29 -65.754724465942374 -185.65989863464350 108.01171823852535 1808.0980320372519 0.0000000000000000 0.0000000000000000 0.0000000000000000 0.0000000000000000 3.1682804847802530 3.3426269991403226 1.1744026103052287 1.0839572499502688 5868.6897399375812 5758.3377142340541 1.0836786776108223 
-84.743518384355085 -209.67295710075754 103.52583965167933 -84.743518384355085 -209.67295710075751 103.52583965167933 -3261.8371665634572 4.2138646674177573e-13 -2.8270340491626860e-13 -3.8854255268521344e-13 -2753.8279043578264 2.8131033613654205e-10 7.2769679171358348e-11 1.4242108505868602e-06 0.0012679308536417500 -2.9434898360834967e-20 -1.5368043236814908e-20 1.0356577267162914e-19 0.0074648540714142347 -83.461357431600007 -208.36062644399999 109.02489266960001 1287.0831768928649 0.0000000000000000 0.0000000000000000 0.0000000000000000 0.0000000000000000 3.1712686584265937 3.3491656902203002 1.1779714137170518 1.0844483001811482 6483.9591547106738 6648.8213420292095 1.0853406780924590 
-42.269301804522478 -130.54997046492113 57.706210795314171 -42.269301804522470 -130.54997046492116 57.706210795314171 -1130.3379754425207 4.7576884141325451e-14 -3.7042244048736091e-14 -2.2332442391227539e-14 -1641.2697814746605 1.5587656165827471e-10 2.7948865444216156e-11 2.0844826789101494e-06 0.00068265222151531841 1.6855702405894370e-19 -1.3250157275632183e-19 1.1191127329500940e-19 0.010928695783310443 -41.558840772800004 -130.04627243999997 65.754654395919971 2180.9238908936368 0.0000000000000000 0.0000000000000000 0.0000000000000000 0.0000000000000000 3.1702431130879747 3.3467786425853912 1.1765972793091597 1.0844483001811471 3231.7316307529113 3231.7716646088761 1.0847077204736875 
-23.242458944807083 -134.99423280094121 47.277287958275011 -23.242458944807083 -134.99423280094121 47.277287958275004 -1999.0250300941127 -2.8767262693162311e-15 -3.3356385057673820e-14 5.2054692641626856e-14 -2393.2769636179560 9.9686120469399965e-11 3.0453528587770506e-11 2.2347659474064581e-06 0.00094967359997798206 5.9334620967313733e-20 -3.1505608006877720e-21 -2.5753932834498251e-20 -0.00030342632481619155 -22.788097858800000 -134.44511465599999 55.905993737599999 935.86986824075086 0.0000000000000000 0.0000000000000000 0.0000000000000000 0.0000000000000000 3.1690118948093091 3.3444520941259950 1.1755113232745111 1.0844483001811467 4616.7167498608242 4614.1784679481852 1.0842133602085091 
-11.319650332183148 -103.83308950663455 53.845383236634206 -11.319650332183151 -103.83308950663451 53.845383236634227 -1771.7190362091367 3.3427013764304452e-14 -9.3420224475383603e-14 -7.3766446515155523e-14 -1389.0450778606146 6.4477034822374435e-11 1.2786549596910390e-11 2.1401181271585301e-06 0.00083995047273350534 -3.5408901078642419e-20 5.0368829775517680e-20 -5.7995063792428592e-22 0.0012153639909518806 -11.025769398400001 -103.60243655599999 62.108642139439993 1284.9349949311236 0.0000000000000000 0.0000000000000000 0.0000000000000000 0.0000000000000000 3.1693179701272878 3.3450950172439993 1.1758486866828650 1.0844483001811471 4187.5045814526684 4174.8574825203341 1.0843667863315534 
-29.533290017664250 -141.37867521613629 62.277128179386125 -29.533290017664253 -141.37867521613632 62.277128179386132 -1383.3702920911483 3.0050983665030038e-15 5.6824018425171012e-14 -1.0216024868056824e-13 -1032.6457319715871 1.1826442603002363e-10 3.4059755016357940e-11 2.0186146603151656e-06 0.00061801625574437510 -1.3869505579267220e-19 1.3795401004474945e-19 2.4332415429517863e-20 -0.0041793255194942638 -28.994254794799993 -140.76430841599998 70.071247290159988 2176.9829965296321 0.0000000000000000 0.0000000000000000 0.0000000000000000 0.0000000000000000 3.1710301389886442 3.3484910403189980 1.1775251026807394 1.0844483001811471 3610.1490970706332 3658.2916103461707 1.0851273828237591 
-104.96067511413182 -195.21853015739558 87.658509638346899 -104.96067511413183 -195.21853015739561 87.658509638346899 -1503.4818872486367 -5.0599420854330091e-14 1.0638078035304626e-14 -4.6443472771457468e-14 -2249.6941296108048 3.4100103296630385e-10 6.4595329085648245e-11 1.6528628741241393e-06 0.0010999302363923552 -7.7166202343650614e-20 1.0168281770821590e-19 -2.1962389048518204e-19 0.0037673992288700404 -103.40639267600000 -194.05392295999994 94.040416199999996 2662.2783756828549 0.0000000000000000 0.0000000000000000 0.0000000000000000 0.0000000000000000 3.1691553856557517 3.3447401863932642 1.1756534250201403 1.0844483001811476 3107.1757408131639 3036.4396919675869 1.0842776220624091 
-83.777661411698816 -163.13812957951069 70.463247685067486 -83.777661411698787 -163.13812957951075 70.463247685067486 -1856.9313971038362 3.3714358561873444e-14 1.0028432609686140e-14 1.2570917803107281e-14 -2376.0562648313075 2.7845284411576193e-10 4.6407655496238937e-11 1.9006507212537829e-06 0.0014807063581002890 -3.6079500101322233e-19 2.1564509794248958e-19 -2.6925397998387630e-19 0.0018576671262847868 -82.508500824799995 -162.30138233600007 77.801893530400037 2229.3857910936085 0.0000000000000000 0.0000000000000000 0.0000000000000000 0.0000000000000000 3.1726239052390026 3.3517516772305971 1.1791925804367163 1.0844483001811469 4065.9677444591512 4018.4112036759466 1.0859096395398211 
-28.516443770231618 -125.51429830345282 123.15236784433350 -28.516443770231607 -125.51429830345288 123.15236784433355 -88.041620922773305 -1.1116137283263427e-14 -1.7139984751917006e-14 1.3319345446399621e-14 -1.2211840175898299e-28 1.1526138377071504e-10 2.5074498033461623e-11 1.1413878890920159e-06 0.0080842645524506415 -4.5038091797420652e-18 2.2764854121401270e-18 3.9614492703457887e-18 1.2970006925909928e-29 -27.991095225219734 -125.06206457489009 127.55940664489751 1124.7619503421174 0.0000000000000000 0.0000000000000000 0.0000000000000000 0.0000000000000000 3.1589221475582874 3.3229316509279694 1.1640837621282218 1.0847345706077125 344.50211157710936 364.60907012355170 1.0790149367215658 