# For a description of the Tecplot format see the Tecplot User's guide.
#
Variables=x,y,z,s_u,s_v,s_w,s_p,mono_f_vel_u,mono_f_vel_v,mono_f_vel_w,const,u_nu,v_nu,w_nu,p_nu,x_nu,y_nu,z_nu,const,u_ref,v_ref,w_ref,vol_ref,x_ref,y_ref,z_ref,const,I1,I2,I3,J,p1,p2,p3
Zone f=fepoint, n=1339, e=6475, et=brick, c=black
-58.9143 -70.4442 175.967 -58.914328441933101 -70.444215851605946 175.96720123372805 -80.729804007928195 -1.3253508478006553e-08 -2.1551354073065023e-07 7.6600378010407875e-07 -81.281731391613036 2.2290425200077731e-09 -1.1547604539252630e-10 2.4684491783943940e-07 0.00016812347441109507 -1.1934840858415965e-13 1.6844229491438224e-14 -6.7776207828873634e-13 0.00016844013721047430 -58.668039002000000 -70.473359259200009 176.35421013599998 215.13583165143561 0.0000000000000000 0.0000000000000000 0.0000000000000000 0.0000000000000000 3.0431387004256907 3.0867111677334451 1.0435737346815819 1.0212458649887564 306.26499421099089 305.70324278059252 1.0215550279223147 
-65.231823243458834 -76.401590062065324 183.75165134658820 -65.231823243458834 -76.401590062065310 183.75165134658815 -84.129023225230341 -1.9507168764177283e-06 -3.2632422150920800e-06 3.5009358249625231e-06 -84.130573454510483 2.4318758812258423e-09 -5.1899151642942349e-11 1.7403650920400085e-07 0.00016957715669699912 1.9072585577333423e-12 7.7494148305803645e-13 -2.8083243489647099e-12 0.00017101031440752481 -64.963123215600007 -76.414687385200040 184.02450960799996 253.42820447565578 0.0000000000000000 0.0000000000000000 0.0000000000000000 0.0000000000000000 3.0439317917123012 3.0883196542752325 1.0443892520570814 1.0212458649887532 315.12541988727850 315.22684364356763 1.0219546926901957 
-69.949026373500828 -71.558002795486885 176.86279633060897 -69.949026373500828 -71.558002795486900 176.86279633060897 -81.665447262444829 -1.6332399866260502e-06 -5.5910255537428578e-07 2.8404950554077163e-07 -83.157848237506272 2.5833189892798814e-09 -1.0359688107364208e-10 2.3846836327834348e-07 0.00016840926270433515 1.4515178246397927e-12 4.9527930700722002e-13 -3.2707937783796474e-13 0.00016909328374285296 -69.663592608799988 -71.584146237200002 177.23667228800005 218.29881668600640 0.0000000000000000 0.0000000000000000 0.0000000000000000 0.0000000000000000 3.0443619070746233 3.0891857285747268 1.0448252353177172 1.0212458649887561 312.44546678526552 312.56460751638207 1.0221684354373652 
-57.405943901047827 -87.744228200287324 171.21413114466063 -57.405943901047799 -87.744228200287267 171.21413114466054 -76.622627741633536 -2.2743246725824322e-06 3.3090493043969519e-06 8.4576873517154183e-06 0.0000000000000000 2.1806137590063557e-09 6.9163647031800237e-11 2.9130067558114092e-07 0.00016649117734773004 1.7624561266405309e-12 -2.9768067196445006e-12 -2.1978913737256273e-12 0.0000000000000000 -57.165005282198301 -87.726774323660578 171.67083873969227 259.76550921814646 0.0000000000000000 0.0000000000000000 0.0000000000000000 0.0000000000000000 3.0393749717221641 3.0790772634392298 1.0397029386653951 1.0200294789897466 285.19968286940639 285.18513112029251 1.0196574595780270 
-89.252254483480243 -83.383631061983877 115.84427285045246 -89.252254483480257 -83.383631061983863 115.84427285045241 -70.052103283607750 -6.5508050510736756e-07 5.6573427945636768e-06 -2.6696735205740077e-06 0.0000000000000000 3.2030565561003144e-09 2.2615465056219364e-11 8.0917819866854767e-07 0.00016854908966684113 2.0815331742712386e-13 -5.4117597976216767e-12 1.9137784211204674e-12 0.0000000000000000 -88.898344731952406 -83.377922378373768 117.11292023788836 283.91631954144174 0.0000000000000000 0.0000000000000000 0.0000000000000000 0.0000000000000000 3.0395598695878814 3.0794015748056811 1.0398421399309401 1.0200920514587233 273.58609649880032 273.13708675429649 1.0197260740111143 
-97.980565220362138 -66.862911042607777 106.81916038918854 -97.980565220362124 -66.862911042607763 106.81916038918850 -79.506016192603610 -9.7055836498533175e-09 1.8695157288535116e-06 -1.1325653319541769e-05 -81.169846739540660 3.4832847856103299e-09 -1.5370479888865418e-10 8.9359060595484163e-07 0.00017486680849165004 -1.0137588477413626e-12 -9.5912219523935375e-13 6.2520637850079064e-12 0.00017462521231209659 -97.595692787999965 -66.901700632800015 108.22015140479995 322.25788568967050 0.0000000000000000 0.0000000000000000 0.0000000000000000 0.0000000000000000 3.0438096284212333 3.0880866920093912 1.0442785066405109 1.0212458649887537 306.37299902034835 306.52939691796166 1.0219004329666868 
-79.983562975291463 -67.494361380511080 107.22036706104920 -79.983562975291491 -67.494361380511066 107.22036706104923 -77.816420491187216 -2.9974698169548423e-06 2.6855773210376887e-06 -5.2043016831974533e-06 0.0000000000000000 2.9054853661891755e-09 -1.4695936134678789e-10 8.8983809209963738e-07 0.00017366537393947879 3.4368651649433765e-12 -1.9835558847525957e-12 4.9041805251346908e-12 0.0000000000000000 -79.662532843379708 -67.531450170133141 108.61547480962874 295.38956150422752 0.0000000000000000 0.0000000000000000 0.0000000000000000 0.0000000000000000 3.0408451186732131 3.0820559263345029 1.0412117199478894 1.0204612898072920 292.66492629056506 292.70978420147452 1.0203970874769734 
-94.851560529251159 -81.841057336650536 107.23136169241411 -94.851560529251117 -81.841057336650522 107.23136169241405 -76.724053342280101 -4.2754404181178499e-06 3.5567648641700779e-06 -8.4658295752066309e-06 0.0000000000000000 3.3828301410077088e-09 6.1582405841420496e-12 8.8973526057856144e-07 0.00017431660445818998 5.1435491950333885e-12 -1.7245073855573994e-12 6.8884460020997741e-12 0.0000000000000000 -94.477787882002133 -81.839503548705352 108.62630821647583 293.80807890400462 0.0000000000000000 0.0000000000000000 0.0000000000000000 0.0000000000000000 3.0407888886923100 3.0819217832112198 1.0411336932131947 1.0204234731676054 288.79358327342834 288.48048043489047 1.0203587737211774 
-47.530280114988678 -126.07314103430573 137.75563197722252 -47.530280114988706 -126.07314103430565 137.75563197722255 -40.076982283173976 6.6089269989655905e-08 2.5588184179384343e-06 7.9420074223819563e-06 0.0000000000000000 5.4489505476438693e-08 -1.9093987590107940e-08 5.8302401747383219e-07 0.00014874123145510883 -1.6224241386553944e-14 -2.3438776725039706e-12 -3.8310397154243081e-12 0.0000000000000000 -47.292355390977058 -125.96433165720771 138.67232254046354 244.31333887135355 0.0000000000000000 0.0000000000000000 0.0000000000000000 0.0000000000000000 3.0469212954377314 3.0944390252842324 1.0475199953200613 1.0236258398981002 249.86755033362709 249.86710628934091 1.0234841814809246 
-34.368600132249512 -140.59691828434501 138.28269262176150 -34.368600132249519 -140.59691828434504 138.28269262176141 -40.069927847841917 4.2399571146663279e-06 -8.3820379599115505e-07 3.9533740034361660e-06 0.0000000000000000 2.1074709493122731e-08 5.5113103938758238e-09 5.9628288276709555e-07 0.00014788150885701990 -5.8049657475026812e-12 1.7725719789473167e-12 -3.5002444352266346e-13 0.0000000000000000 -34.196989160350306 -140.43319657724166 139.21506628885933 210.16870282748488 0.0000000000000000 0.0000000000000000 0.0000000000000000 0.0000000000000000 3.0460879340876108 3.0927308487729870 1.0466448139010209 1.0230830150526924 247.17112595371265 247.17117373017032 1.0230568536838964 
-31.095836441961527 -127.76638888425693 141.84121285689116 -31.095836441961531 -127.76638888425703 141.84121285689108 -44.198076545320923 2.9811902252971484e-06 1.4090541035588266e-06 7.7701840402939046e-06 0.0000000000000000 1.3359144346303251e-09 4.9630710652337494e-10 5.6602729303634192e-07 0.00014974402034466307 -3.1258085783535461e-12 -1.2138023789906025e-12 -1.3052537553051520e-12 0.0000000000000000 -30.948229910445860 -127.64113600963313 142.72864290474456 229.21992526850030 0.0000000000000000 0.0000000000000000 0.0000000000000000 0.0000000000000000 3.0447140621587501 3.0899300029630048 1.0452175506177219 1.0225240567424518 249.34444696129327 249.34416694179265 1.0223585843812648 
-48.646244688211844 -131.02849117007574 146.05773839741610 -48.646244688211851 -131.02849117007565 146.05773839741607 -41.521986716439173 2.7141770193736423e-06 8.0212362848386273e-06 -1.9243707923944388e-06 0.0000000000000000 5.1044234401983810e-08 -1.7677147072135609e-08 5.0866200868712978e-07 0.00014860661292659261 -2.3397998477953832e-12 -9.5746416509837615e-12 2.8962791942265715e-12 0.0000000000000000 -48.406431667502837 -130.90513559487593 146.85896726379221 225.63426853136377 0.0000000000000000 0.0000000000000000 0.0000000000000000 0.0000000000000000 3.0473383075982046 3.0952721244585084 1.0479360031040377 1.0235481576398768 251.86208933708537 251.86215600508541 1.0236874223186516 
-53.237107949742132 -84.921766490963719 75.801167026847409 -53.237107949742118 -84.921766490963762 75.801167026847438 -75.459464283099749 -2.2729437319915823e-06 2.0960601891965667e-05 -4.1348277166278147e-05 0.0000000000000000 7.4273107008274816e-09 -2.6780002282095065e-08 1.2842233987649941e-06 0.00019567344511272280 5.3129465197741600e-12 4.0577513016429852e-11 2.2805513622786427e-11 0.0000000000000000 -53.009977022357148 -84.940192361847963 77.707205907375524 356.07450292316213 0.0000000000000000 0.0000000000000000 0.0000000000000000 0.0000000000000000 3.0417928345195175 3.0839645613561242 1.0421725436392359 1.0209058791394372 280.14751321365924 280.14761720635306 1.0208661835251087 
-40.492446464412957 -85.656150876858291 65.459247158841663 -40.492446464412971 -85.656150876858234 65.459247158841663 -100.90928049578419 -2.6504034491795483e-07 6.2817076813588139e-06 -2.1683193382623045e-05 0.0000000000000000 4.0486111585575066e-09 -1.2758368470407241e-08 1.3237262288626842e-06 0.00020100287036474247 5.8567241800114290e-12 3.8759471976284436e-13 -6.6446288793880832e-12 0.0000000000000000 -40.313282635619565 -85.652866469445740 67.489144002613742 334.72004880612383 0.0000000000000000 0.0000000000000000 0.0000000000000000 0.0000000000000000 3.0400118003928283 3.0804083722886308 1.0403976110986470 1.0204397493939636 330.29859449400539 330.29858695876567 1.0199981610538915 
-43.111930163417007 -94.081011363792243 81.463455850952627 -43.111930163417000 -94.081011363792200 81.463455850952627 -65.139259233441180 2.1689809803372592e-05 5.6810496160509879e-06 -1.8288203000516948e-05 0.0000000000000000 -3.9236366511302870e-09 -3.1814624906258937e-08 1.2186038901769020e-06 0.00018550801854667469 1.1411245044232847e-11 1.5088642848797945e-12 5.1353220801234270e-11 0.0000000000000000 -42.930125987095458 -94.071309017270835 83.274511392489799 283.94561953274422 0.0000000000000000 0.0000000000000000 0.0000000000000000 0.0000000000000000 3.0427461688141175 3.0859119303508900 1.0431668624559689 1.0210708081025519 270.55274833716061 270.55277034029683 1.0213546907966906 
-45.143775289218645 -99.017535461339861 66.016237528387322 -45.143775289218645 -99.017535461339818 66.016237528387350 -86.241487472278521 1.4260105450922665e-05 1.1058972302954575e-05 -3.2381231234843041e-05 0.0000000000000000 1.7869306173645683e-09 1.8948370650306853e-10 1.2752227336321198e-06 0.00019703983128188334 -1.9294976501111248e-11 -1.7810106670123934e-11 -2.9633041826522244e-11 0.0000000000000000 -44.946335306532468 -98.969717126470769 68.015559797458934 339.42980011114588 0.0000000000000000 0.0000000000000000 0.0000000000000000 0.0000000000000000 3.0421628771550222 3.0847787932986863 1.0426173701105528 1.0209394797427471 307.05765862434578 307.05764313840803 1.0210854009503825 
-35.824731397471041 -100.87623529761953 73.450469411063821 -35.824731397471048 -100.87623529761957 73.450469411063793 -80.471406797184756 1.1543144240119556e-05 7.6770463144409870e-06 -1.6728663719830689e-05 0.0000000000000000 -7.4266898527290712e-09 -1.6509187954986803e-08 1.2524143844755702e-06 0.00019138578633186301 7.9934463504139477e-12 -1.5741937655070550e-11 1.3014073283922499e-11 0.0000000000000000 -35.672109309640206 -100.83293553867907 75.360366609178811 338.44965823895870 0.0000000000000000 0.0000000000000000 0.0000000000000000 0.0000000000000000 3.0391151132552263 3.0785951028888503 1.0394809698428882 1.0203183135564240 290.91889173121513 290.91889246788492 1.0195491004209882 
-49.187577968295763 -112.07506535793887 63.344644635927473 -49.187577968295763 -112.07506535793890 63.344644635927473 -77.639323010333058 2.1638957125862594e-05 9.5022859022620495e-06 -2.0108151767062691e-05 -68.727595555726680 1.9167570447509168e-09 3.2884334144611666e-10 1.3002102958736828e-06 0.00018708635877801656 -1.8914518102324600e-11 9.7014375402379138e-12 1.2613072677144045e-11 0.00018563014887928024 -48.975793059600008 -111.99207679200002 65.383142959360015 326.57209562220959 0.0000000000000000 0.0000000000000000 0.0000000000000000 0.0000000000000000 3.0425583158741789 3.0855214062152685 1.0429641473959843 1.0211517427620547 294.42099489234749 294.42099319721541 1.0212551177866123 
-25.366820362215538 -110.56078120833570 65.462209869211790 -25.366820362215545 -110.56078120833577 65.462209869211819 -93.730168632413495 4.0538723007840359e-06 4.9480672831865735e-06 -1.9077075954267477e-05 0.0000000000000000 1.1519793036152137e-09 3.1267410882662716e-10 1.2804045890213445e-06 0.00019200682375681861 -2.6177182125749609e-12 -9.4386699020268588e-12 4.9885494800625819e-12 0.0000000000000000 -25.239536857883341 -110.48187134057846 67.469656361758609 349.35568362690350 0.0000000000000000 0.0000000000000000 0.0000000000000000 0.0000000000000000 3.0411461980973518 3.0826918309687739 1.0415467519661346 1.0207126377405313 322.46787215534044 322.46787404211551 1.0205615463945608 
-44.270193800354527 -111.34963619957884 74.578638215388708 -44.270193800354512 -111.34963619957887 74.578638215388750 -66.430814853080676 1.1708368096805239e-05 -9.6692447037402591e-06 -1.0872167878263854e-05 0.0000000000000000 1.7588865502959903e-09 3.2109631620258483e-10 1.1951380960439906e-06 0.00018091015045347740 -1.2394529752784663e-11 -1.1727336504347707e-12 1.8209546027992904e-11 0.0000000000000000 -44.075852747763513 -111.26860156453857 76.452402029906395 268.59635586333832 0.0000000000000000 0.0000000000000000 0.0000000000000000 0.0000000000000000 3.0438559119205548 3.0882002196134741 1.0443459034185354 1.0209773837234042 280.88052816609428 280.88051612506109 1.0219326420592052 
-58.536192165686423 -106.64595912508111 103.88370883178769 -58.536192165686380 -106.64595912508108 103.88370883178774 -34.365047344292499 4.0942500668999308e-06 1.7155453222025432e-05 -7.2563268048906968e-07 0.0000000000000000 6.2011590945938120e-08 -6.3996248574332489e-08 9.6590624102711503e-07 0.00015388220642025815 -5.8089794527908333e-12 -2.1614706550406157e-11 6.7238468700455723e-12 0.0000000000000000 -58.254647241440821 -106.62760994408018 105.33920711112118 241.62621693813244 0.0000000000000000 0.0000000000000000 0.0000000000000000 0.0000000000000000 3.0497315146123278 3.1001062267150945 1.0503772102061852 1.0245935339792502 246.82461865403749 246.82540116316343 1.0248789632075024 
-64.675746265536773 -90.059703254613751 95.080415411476594 -64.675746265536802 -90.059703254613794 95.080415411476622 -54.016555126058442 -8.0782993957878531e-06 5.3747678135988800e-06 1.2262555673327005e-05 0.0000000000000000 5.9486495769435911e-08 -7.8612801761204075e-08 1.0810174294673429e-06 0.00016700262781794092 1.2440171143957332e-11 -8.0867142115805120e-12 -1.1580290488574049e-11 0.0000000000000000 -64.370648572599308 -90.090304358695661 96.688480747766732 239.98138923263960 0.0000000000000000 0.0000000000000000 0.0000000000000000 0.0000000000000000 3.0452717894543473 3.0910163952782521 1.0457457417991247 1.0217573577983050 260.67792773984087 260.68134924681448 1.0226152602223817 
-76.270244745337791 -99.711441388848684 99.795765476749921 -76.270244745337820 -99.711441388848613 99.795765476749835 -49.528576033891738 -1.4066491472130109e-05 1.6356775112558201e-05 -3.5279899028616247e-06 0.0000000000000000 7.8581045940583685e-08 -5.4482560269765294e-08 1.0177602260695416e-06 0.00016514447287907752 2.1735394969642531e-11 -2.1652767082146375e-11 7.5722220218014866e-12 0.0000000000000000 -75.913673002404863 -99.702254402691466 101.32606574872912 288.13617662859207 0.0000000000000000 0.0000000000000000 0.0000000000000000 0.0000000000000000 3.0466180082375875 3.0937677976213678 1.0471514741050816 1.0226644425402749 259.35020220348991 259.34764401547250 1.0233050890364013 
-55.430882686958192 -93.566681150308156 101.83101051171195 -55.430882686958206 -93.566681150308170 101.83101051171201 -50.287810960649757 -7.4655041212997952e-07 8.5367843102748014e-06 4.5173046717654718e-06 0.0000000000000000 5.2105894156509324e-08 -7.5329827485132014e-08 1.0010368894061503e-06 0.00016293418016963081 3.3488143008825942e-12 -7.0527596115991362e-12 9.1138091448712797e-13 0.0000000000000000 -55.164710769962618 -93.586508083202432 103.32606452766413 222.68531933077850 0.0000000000000000 0.0000000000000000 0.0000000000000000 0.0000000000000000 3.0456272308630208 3.0917122891127260 1.0460862349064508 1.0226488816262571 264.52633511919180 264.52754864784919 1.0227838072540045 
-45.963124351710960 -176.15138230157916 154.95401018292594 -45.963124351710960 -176.15138230157928 154.95401018292605 -42.950548138395519 -7.1517993716270257e-06 -8.8755408100311814e-06 1.6850676851279126e-05 0.0000000000000000 1.8132389617564473e-09 1.0127118588165729e-09 4.4338252136455480e-07 0.00014767928495176960 5.7874331256319845e-12 1.0120266307729311e-11 -7.9717880068845426e-12 0.0000000000000000 -45.762777822239421 -175.89580528354742 155.64915507299250 248.91339099022119 0.0000000000000000 0.0000000000000000 0.0000000000000000 0.0000000000000000 3.0458078168909428 3.0920913457255765 1.0462849079922554 1.0223447135277681 242.97156839312927 242.97156507750157 1.0228802797756742 
-51.656036935244821 -185.84449667003236 167.64466390292620 -51.656036935244821 -185.84449667003238 167.64466390292617 -47.647967169840769 4.6491624359907780e-07 -8.1837393561459628e-07 -4.6082217671472113e-07 -49.588674321058868 1.9960113978312322e-09 1.1161822022209833e-09 3.2468610466906966e-07 0.00014915440423168553 -5.6424668218489337e-13 1.0314307038817894e-12 1.2493129186770414e-12 0.00015005959138711386 -51.435495451599998 -185.56281141599996 168.15371392000000 294.81703600272857 0.0000000000000000 0.0000000000000000 0.0000000000000000 0.0000000000000000 3.0421512185177515 3.0847113706629625 1.0425612994399891 1.0212593971120691 243.83763270593602 243.83763306013847 1.0210591182452551 
-42.864113163430574 -171.42278542082315 165.73439895471572 -42.864113163430595 -171.42278542082306 165.73439895471572 -46.563511114469975 1.0453954110824948e-06 -1.1178511854702312e-06 4.7397955718842203e-06 0.0000000000000000 4.3508531551134013e-09 -5.2253907407989707e-09 3.4060786939508971e-07 0.00014927885790063671 -1.6412901989387764e-12 -8.4764457186798868e-13 -9.8407006757329530e-13 0.0000000000000000 -42.672974891599750 -171.18173466392949 166.26923354793541 271.88244999766295 0.0000000000000000 0.0000000000000000 0.0000000000000000 0.0000000000000000 3.0425992543321581 3.0856222557034130 1.0430242291728975 1.0214625227685064 242.35794374642117 242.35794528484345 1.0212856351456461 
-59.631568688510349 -178.27869028238391 157.08674545552250 -59.631568688510313 -178.27869028238396 157.08674545552242 -49.802309709680195 -4.7601085880898014e-06 -1.5270849908016446e-06 -3.9118270081815631e-07 0.0000000000000000 2.2520694892280702e-09 1.0354206381180122e-09 4.2343493422691841e-07 0.00015101702544750921 4.9937546658886626e-12 1.4689610064998211e-12 1.7254209855257902e-13 0.0000000000000000 -59.382734921100123 -178.01738339707751 157.75061606229067 243.94852352315442 0.0000000000000000 0.0000000000000000 0.0000000000000000 0.0000000000000000 3.0423819306260791 3.0851656151487910 1.0427847526853424 1.0214233221199012 247.62961418423581 247.62960832444304 1.0211685098491470 
-30.810264775535355 -102.76613785327197 93.711353497021548 -30.810264775535341 -102.76613785327203 93.711353497021534 -44.350290918543017 6.3834171441728245e-06 1.1364265701505423e-05 -2.8508989085761294e-05 0.0000000000000000 2.3014867225679582e-09 -1.8797963447309790e-08 1.0651861335798578e-06 0.00016665331325389104 -2.0236448868948103e-11 1.6077171757547126e-11 9.0866372683565064e-12 0.0000000000000000 -30.660097366607719 -102.72526557899965 95.328291536857705 204.58703120518373 0.0000000000000000 0.0000000000000000 0.0000000000000000 0.0000000000000000 3.0456444081441720 3.0917429683518143 1.0460996321507363 1.0224964045305402 248.01465794952495 248.01463090987241 1.0227897465483442 
-18.908595241412915 -110.98600633560103 91.731805701940559 -18.908595241412918 -110.98600633560100 91.731805701940587 -58.204742680722809 1.0582324165426459e-05 1.3392820818824655e-06 -2.4326426128806111e-05 0.0000000000000000 9.4463292743540705e-10 3.1721386628547066e-10 1.0347035179769650e-06 0.00017245794391110476 7.2454945473903860e-12 -2.1422413792511699e-12 -3.3975100982542011e-13 0.0000000000000000 -18.804221549666405 -110.90595113131390 93.354036648627854 267.24800799435923 0.0000000000000000 0.0000000000000000 0.0000000000000000 0.0000000000000000 3.0423536441091548 3.0850974043663242 1.0427447659481215 1.0213446298224949 266.72230215740905 266.72230679024392 1.0211492687729633 
-33.965305909444417 -104.76480679382347 83.227894213743269 -33.965305909444403 -104.76480679382347 83.227894213743227 -62.442772432485576 1.0119230855660544e-05 -7.1874961379402687e-07 -2.0399395910329730e-05 0.0000000000000000 -1.3582009210821445e-08 -1.4363656137306390e-08 1.1797252160444990e-06 0.00017491272556661831 -1.5512973245839109e-11 1.1475473571130162e-13 5.4652311238336252e-12 0.0000000000000000 -33.815892125380543 -104.71065599625929 85.007910193808286 270.69679205096202 0.0000000000000000 0.0000000000000000 0.0000000000000000 0.0000000000000000 3.0405324320376068 3.0814635528749230 1.0409322465325557 1.0208291137014578 264.42505230295234 264.42505043454906 1.0202597583843920 
-19.025973800996827 -100.43130744880875 93.806252600238281 -19.025973800996830 -100.43130744880871 93.806252600238238 -52.359443984900935 3.5773202625331772e-06 -3.4117023184709517e-07 -7.0501180507687642e-06 0.0000000000000000 9.4840237052640219e-10 2.0456719651562594e-10 1.0153010996383216e-06 0.00016584246219142785 4.7218664983000145e-12 7.3436348873365130e-12 4.8693042961937776e-12 0.0000000000000000 -18.921183722278450 -100.37968114352928 95.398064000337470 185.31956687594098 0.0000000000000000 0.0000000000000000 0.0000000000000000 0.0000000000000000 3.0431235151570579 3.0866387165183449 1.0435161804148170 1.0214255286058922 257.60669320628688 257.60669813419730 1.0215272428208038 
-31.268288573261998 -118.06877748351860 172.79526386491844 -31.268288573261998 -118.06877748351869 172.79526386491850 -58.630049151691360 1.0869150943260561e-05 1.0685718319736043e-05 6.0877151357217243e-06 0.0000000000000000 -5.8188366747213364e-10 -1.3195863233132318e-08 2.4976656677757283e-07 0.00016061403031163783 -8.3098489243842440e-12 -7.2734991279169635e-12 -4.7381162761434385e-12 0.0000000000000000 -31.124431206993112 -117.97934695114738 173.21200361760444 258.17126679857051 0.0000000000000000 0.0000000000000000 0.0000000000000000 0.0000000000000000 3.0428784089670513 3.0861647286022036 1.0432873459597749 1.0215715694421121 264.92644576554380 264.92239652783331 1.0214144955023381 
-30.789202733903647 -133.26868822432678 164.25748212596073 -30.789202733903632 -133.26868822432687 164.25748212596071 -49.570473624994499 9.8437633970322192e-06 3.8591283030003554e-08 7.6327297093371582e-07 0.0000000000000000 4.7776225363039002e-09 -8.3220532229881107e-09 3.4370039149772119e-07 0.00015288650017731263 -9.0340663020336494e-12 -1.5189476200790574e-12 -9.3518707611862638e-13 0.0000000000000000 -30.642131568542830 -133.13454878399213 164.80820313575899 262.24283076768535 0.0000000000000000 0.0000000000000000 0.0000000000000000 0.0000000000000000 3.0440585644688709 3.0885803124865130 1.0445231447592886 1.0221516663778054 254.16060408997708 254.16124001493262 1.0220189319962865 
-42.874093004080940 -120.18566972992321 163.16230746321415 -42.874093004080933 -120.18566972992315 163.16230746321423 -43.904708276274377 1.6377445192393617e-05 1.0103555816881123e-05 5.6808334023331437e-06 0.0000000000000000 1.8303265385288011e-08 -3.5859532711273763e-08 3.1975874877296639e-07 0.00015256012083199246 -1.5133382335468698e-11 -1.1400062080553256e-11 -1.4036272038485049e-11 0.0000000000000000 -42.676694985445003 -120.10595080876966 163.70375490782192 268.28772502602959 0.0000000000000000 0.0000000000000000 0.0000000000000000 0.0000000000000000 3.0484886219842036 3.0975694292044031 1.0490828716885294 1.0235023007289230 253.36211099537019 253.36373242755047 1.0242474865658233 
-23.869294531646563 -114.32301082584085 161.20935456203617 -23.869294531646570 -114.32301082584083 161.20935456203614 -58.307326527993887 5.2434853654250877e-06 3.9741432347251582e-06 6.1644376275231250e-06 0.0000000000000000 1.1038998881662820e-09 3.5283120869422641e-10 3.8487591913494157e-07 0.00015743145235174607 -5.3338755753080607e-12 -3.9303498700616789e-12 -2.9803091858887602e-12 0.0000000000000000 -23.747323328369049 -114.23396745764113 161.81277151251504 321.01516800445251 0.0000000000000000 0.0000000000000000 0.0000000000000000 0.0000000000000000 3.0420990942024941 3.0845985480979441 1.0425004831380926 1.0213500393635508 263.76847930025639 263.76096779799991 1.0210295101701277 
-6.5238883537097863 -105.05162381153774 107.94704771777268 -6.5238883537097880 -105.05162381153770 107.94704771777266 -34.445321414762553 4.7001898186271061e-07 -2.6245239083825505e-08 -1.3835669493247316e-05 -28.748788066298406 5.4701589091710190e-10 2.5388302571371923e-10 8.8304140222206218e-07 0.00014499336035717487 -2.8224087787414952e-13 -3.2565069729434854e-13 1.3868758263747852e-11 0.00014017445074246941 -6.4634479885999987 -104.98755276399999 109.33149947120000 327.67017865987640 0.0000000000000000 0.0000000000000000 0.0000000000000000 0.0000000000000000 3.0425408731998607 3.0855058064533951 1.0429661446945617 1.0214532050144720 217.30651004235449 217.30646104695813 1.0212573199457817 
-11.886301343897896 -97.159694812796005 99.935754528852755 -11.886301343897896 -97.159694812796019 99.935754528852740 -47.946225545578528 -1.4496824891047703e-06 -3.4896312216224082e-07 -1.5211706018992303e-05 -45.559538336877701 7.1917897331852377e-10 1.6965012727965245e-10 9.5797150212462157e-07 0.00015880724948380667 1.3912109988372727e-12 -1.9032916672845732e-12 1.0072079385418336e-11 0.00015758957524011067 -11.806838433999999 -97.116880539599975 101.43768333439998 212.90238721710071 0.0000000000000000 0.0000000000000000 0.0000000000000000 0.0000000000000000 3.0422290838496404 3.0848621048403397 1.0426341486853317 1.0212458649887535 243.54225035976236 243.54226000603239 1.0210946670583250 
-15.943459853593483 -110.43868379213727 101.62019844272838 -15.943459853593483 -110.43868379213727 101.62019844272841 -42.341089178577107 6.6476928737057637e-06 -3.9151476131622112e-07 -2.8522094818267833e-05 0.0000000000000000 8.4943752032273778e-10 3.1137614708853784e-10 9.4221679347583642e-07 0.00015387484140697708 -1.0819400862925212e-11 1.0694843062128585e-12 2.2626597423920949e-11 0.0000000000000000 -15.849604639409371 -110.36010279166017 103.09742667861765 236.22178992679409 0.0000000000000000 0.0000000000000000 0.0000000000000000 0.0000000000000000 3.0422268788138287 3.0848727591939071 1.0426470657587206 1.0214603200853365 235.87127994456171 235.87128267205719 1.0211010154377158 
-23.871557886660185 -99.583555359740984 100.79248111132758 -23.871557886660185 -99.583555359740970 100.79248111132758 -42.771047026379087 7.4778313275707821e-06 1.2815671188724672e-05 -1.8500297304880543e-05 0.0000000000000000 1.1039743147422953e-09 1.9551277263829547e-10 9.4995848742840394e-07 0.00015586191080142978 -5.4163753960656355e-12 -1.6052662168470299e-11 1.7584163746698842e-11 0.0000000000000000 -23.749578654390465 -99.534212460059550 102.28184693721489 211.57004919854941 0.0000000000000000 0.0000000000000000 0.0000000000000000 0.0000000000000000 3.0436218271798539 3.0877020531361397 1.0440814986908638 1.0218985996846108 239.88349524662257 239.88348470445638 1.0218028720276069 
-54.357995806901613 -108.39850149798701 112.52971667756356 -54.357995806901620 -108.39850149798707 112.52971667756356 -23.438341649691541 5.8043385513024012e-06 2.0094976763436969e-05 -1.3993713590584698e-05 0.0000000000000000 7.2653670051552944e-08 -6.1361280645747332e-08 8.6446574414771554e-07 0.00014757825395926010 -1.0680468874019664e-11 -1.7969104294735390e-11 -9.7265962940292533e-12 0.0000000000000000 -54.087034329299712 -108.37170302860723 113.84396407125838 191.01171882188567 0.0000000000000000 0.0000000000000000 0.0000000000000000 0.0000000000000000 3.0529615376646948 3.1066446447274298 1.0536860482225059 1.0258831622552362 233.74233965347227 233.74733327469400 1.0264922109359313 
-41.910294134727614 -107.77915549190259 109.61306413071502 -41.910294134727586 -107.77915549190263 109.61306413071499 -29.050211076700627 -4.5277339091513673e-06 1.3654376547686776e-05 1.5989467252113894e-06 0.0000000000000000 6.1446417118076099e-08 -5.9517058305685093e-08 8.9767361325142267e-07 0.00014246638858735137 1.2902595379738965e-11 -3.0337048946984299e-11 -7.9883281690945701e-12 0.0000000000000000 -41.690910404717421 -107.74885629568415 110.97670241767709 270.34727434602189 0.0000000000000000 0.0000000000000000 0.0000000000000000 0.0000000000000000 3.0498222146303573 3.1002273692633797 1.0504070452328305 1.0247543135033379 239.89248545421194 239.89177746670046 1.0248937349101572 