# For a description of the Tecplot format see the Tecplot User's guide.
#
Variables=x,y,z,s_u,s_v,s_w,s_p,mono_f_vel_u,mono_f_vel_v,mono_f_vel_w,const,u_nu,v_nu,w_nu,p_nu,x_nu,y_nu,z_nu,const,u_ref,v_ref,w_ref,vol_ref,x_ref,y_ref,z_ref,const,I1,I2,I3,J,p1,p2,p3
Zone f=fepoint, n=1339, e=6475, et=brick, c=black
-60.5338 -70.2538 173.187 -60.533843255549861 -70.253814871688391 173.18743306332865 -165.37284276169086 1.7031028851194058e-06 1.4533192658077008e-06 3.1613870796462462e-07 -170.02460701341468 2.7290618542785697e-08 -1.0675351713729242e-09 1.3485581867200837e-05 0.0051205932073212475 -1.3161022706484080e-11 4.1609834306845434e-12 -1.9993056125703675e-11 0.0051332929996805990 -58.668039002000000 -70.473359259200009 176.35421013599998 215.13583165143561 0.0000000000000000 0.0000000000000000 0.0000000000000000 0.0000000000000000 3.3569049580958432 3.7415139772444728 1.3852211586310794 1.1754685047904088 1549.9790747959617 1550.3654320835888 1.1769610424456685 
-66.998702390428377 -76.316022060070509 181.79179278609911 -66.998702390428406 -76.316022060070509 181.79179278609905 -176.07678096320390 -2.0325796314968446e-05 -1.0792565666117489e-05 1.0298899021999261e-05 -177.82234916244639 2.9773877696648292e-08 -4.7975912131903452e-10 9.5079270785447534e-06 0.0051868005031883990 1.1669786101509601e-10 5.9549952160848128e-11 -1.0027728457562297e-10 0.0052222171922890461 -64.963123215600007 -76.414687385200040 184.02450960799996 253.42820447565578 0.0000000000000000 0.0000000000000000 0.0000000000000000 0.0000000000000000 3.3605688043811099 3.7497007357362269 1.3897808250495913 1.1754685047904085 1578.5119635806693 1578.2940957557514 1.1789099733326096 
-71.825940829780095 -71.387201323334580 174.17735814060322 -71.825940829780080 -71.387201323334580 174.17735814060322 -169.89687012077729 -8.4107910222455852e-06 -1.0505555926554004e-06 -1.8039246224642492e-06 -178.21531560083233 3.1628083818624482e-08 -9.5764796093078551e-10 1.3027955706235161e-05 0.0051352280213024298 6.2770674214232988e-11 2.6454410068025866e-11 -5.4985175917301537e-12 0.0051613329978686256 -69.663592608799988 -71.584146237200002 177.23667228800005 218.29881668600640 0.0000000000000000 0.0000000000000000 0.0000000000000000 0.0000000000000000 3.3624549080057449 3.7536254478072029 1.3918235515779573 1.1754685047904088 1574.1567916486167 1575.4460370620329 1.1797826696708851 
-58.990273551986874 -87.858258627318932 167.93373829479086 -58.990273551986832 -87.858258627318861 167.93373829479083 -142.79832659358931 -9.1243407902092586e-06 2.0631556279026114e-05 3.8856587067943116e-05 0.0000000000000000 2.6697710597822777e-08 6.3934635363693825e-10 1.5914279053674818e-05 0.0050337794068854511 5.5528384387611974e-11 -1.6956720271038986e-10 -1.3830035629294129e-10 0.0000000000000000 -57.165005282198301 -87.726774323660578 171.67083873969227 259.76550921814646 0.0000000000000000 0.0000000000000000 0.0000000000000000 0.0000000000000000 3.3405913145707724 3.7050326731076204 1.3648813391599852 1.1702580904460902 1458.0531375438438 1458.4530343612330 1.1682728782181397 
-91.579443523491207 -83.420927282403582 106.73196146342184 -91.579443523491193 -83.420927282403625 106.73196146342178 -96.337066777361017 1.4535767059275995e-05 3.3198805124528397e-05 -1.7940329498377236e-05 0.0000000000000000 3.9215714786600131e-08 2.0910984055433349e-10 4.4206859591611192e-05 0.0050504015412814861 -2.6173519696399274e-11 -2.3468322513961470e-10 9.3258501637075861e-11 0.0000000000000000 -88.898344731952406 -83.377922378373768 117.11292023788836 283.91631954144174 0.0000000000000000 0.0000000000000000 0.0000000000000000 0.0000000000000000 3.3467787806009519 3.7174044891701397 1.3710689225008812 1.1723297281168168 1379.9402853758188 1379.9290468456352 1.1709265665692639 
-100.51135422102935 -66.609489202372686 96.756264653844497 -100.51135422102935 -66.609489202372700 96.756264653844497 -151.60246968895675 8.0977055535179561e-06 2.2148904799333569e-05 -8.7970977978374336e-05 -163.55519842417633 4.2646603248819304e-08 -1.4208798582160400e-09 4.8818461088728789e-05 0.0052491987979416148 -8.1734724568328410e-11 -5.2472876896593125e-11 1.1566440760861793e-10 0.0052644861065128329 -97.595692787999965 -66.901700632800015 108.22015140479995 322.25788568967050 0.0000000000000000 0.0000000000000000 0.0000000000000000 0.0000000000000000 3.3579126005424196 3.7442794417454413 1.3870116510937647 1.1754685047904099 1526.8264914507329 1526.8235262233502 1.1777240800050688 
-82.094546923241708 -67.252051284644253 97.199729057600095 -82.094546923241737 -67.252051284644253 97.199729057600067 -152.50285924633550 -1.3583799660704309e-05 2.1556483214549057e-05 -3.5655888184656997e-05 0.0000000000000000 3.5572422008023352e-08 -1.3585794711445942e-09 4.8613454751489371e-05 0.0052438453980335640 9.4624844376657322e-11 -1.2657695275790720e-10 8.0420239102613300e-11 0.0000000000000000 -79.662532843379708 -67.531450170133141 108.61547480962874 295.38956150422752 0.0000000000000000 0.0000000000000000 0.0000000000000000 0.0000000000000000 3.3476580999825298 3.7207370416827108 1.3735958342451193 1.1722646872883633 1495.5820551332770 1495.5738987240411 1.1719934978431359 
-97.309361153220053 -81.851208611733711 97.211881716029581 -97.309361153220067 -81.851208611733696 97.211881716029581 -131.84256477310350 -2.0886972878156128e-05 3.2528959259221871e-05 -6.4364572669639434e-05 0.0000000000000000 4.1416667984073285e-08 5.6920246294112076e-11 4.8607836777847524e-05 0.0051825765763587476 2.5899066442332283e-10 -2.9648041192471674e-10 8.1260435798155644e-12 0.0000000000000000 -94.477787882002133 -81.839503548705352 108.62630821647583 293.80807890400462 0.0000000000000000 0.0000000000000000 0.0000000000000000 0.0000000000000000 3.3495292152468652 3.7240636800791544 1.3750323039621979 1.1726400262979437 1445.7332082854557 1445.7325711612980 1.1726082539287850 
-48.932818299232267 -126.85744557409129 130.94115159426045 -48.932818299232238 -126.85744557409133 130.94115159426053 -23.857286812622053 1.5951500156249418e-05 2.0800574058784589e-06 9.1240121518901181e-06 0.0000000000000000 1.6933949916453693e-06 -8.3417894610569040e-07 3.3484056815504395e-05 0.0043194817680839142 -7.1768482037416627e-11 -6.3819438960953726e-11 -1.1569344749774288e-10 0.0000000000000000 -47.292355390977058 -125.96433165720771 138.67232254046354 244.31333887135355 0.0000000000000000 0.0000000000000000 0.0000000000000000 0.0000000000000000 3.3677775724174532 3.7666375725937091 1.3996115698508669 1.1837226049381442 1341.7610487112463 1341.7627331006954 1.1830512383433820 
-35.441370147111527 -141.64966276457366 131.51667772533469 -35.441370147111542 -141.64966276457369 131.51667772533472 -21.764530590046341 1.5992778490652536e-05 8.4095856746434048e-06 6.3858130605182150e-06 0.0000000000000000 6.6374062271385721e-07 -2.1338462944344616e-08 3.3041723380547660e-05 0.0042510865574095572 -3.0083417765930091e-10 -3.6847364234963901e-11 2.4465687335447378e-10 0.0000000000000000 -34.196989160350306 -140.43319657724166 139.21506628885933 210.16870282748488 0.0000000000000000 0.0000000000000000 0.0000000000000000 0.0000000000000000 3.3655560126197819 3.7619491900660296 1.3971269192767297 1.1821231988283925 1330.7947666283983 1330.7948704929697 1.1820031588619244 
-32.066446324549922 -128.58469642049511 135.46707059298558 -32.066446324549915 -128.58469642049516 135.46707059298566 -40.074321050491761 1.3288929902984283e-05 2.2261789820663982e-06 2.5766279863606116e-05 0.0000000000000000 1.6355850673832606e-08 4.5880439447643084e-09 3.0923088566225942e-05 0.0043475886907175304 -1.1987984373372001e-10 -7.6854985332706919e-11 1.3275983177152371e-10 0.0000000000000000 -30.948229910445860 -127.64113600963313 142.72864290474456 229.21992526850030 0.0000000000000000 0.0000000000000000 0.0000000000000000 0.0000000000000000 3.3579115804886324 3.7444817843578595 1.3872146663303062 1.1790859661274027 1339.6451171466858 1339.6438500690995 1.1778011755806539 
-50.076929685823281 -131.88992593968592 140.11040906731449 -50.076929685823274 -131.88992593968590 140.11040906731444 -17.731622300034633 2.0819674871185938e-05 3.9324480784097198e-05 -1.9994113815368766e-05 0.0000000000000000 1.5924210708727779e-06 -9.4953985237182884e-07 2.9297952173125103e-05 0.0042388860919555186 -8.6744947557794662e-11 -4.7389746599655863e-10 1.7475193080682673e-10 0.0000000000000000 -48.406431667502837 -130.90513559487593 146.85896726379221 225.63426853136377 0.0000000000000000 0.0000000000000000 0.0000000000000000 0.0000000000000000 3.3727277119654997 3.7773329724872124 1.4053781093959574 1.1849860731279191 1336.6352555820131 1336.6345669807934 1.1854861429463499 
-54.705192539654341 -84.860959254597773 62.290730574214024 -54.705192539654327 -84.860959254597731 62.290730574213981 -126.05734567892296 -5.9448720210407589e-06 0.00015518717585751810 -0.00016517715956604570 0.0000000000000000 -1.5457005713492034e-07 -7.7172651269746142e-07 6.5133574131503774e-05 0.0050089836303181812 4.2461633256385020e-10 1.6850425114796014e-10 -2.9955037731698416e-09 0.0000000000000000 -53.009977022357148 -84.940192361847963 77.707205907375524 356.07450292316213 0.0000000000000000 0.0000000000000000 0.0000000000000000 0.0000000000000000 3.3617821833585406 3.7517213931513327 1.3905218804214881 1.1773821049192241 1423.5994642737464 1423.5994613095802 1.1791194984499169 
-41.655065725882352 -85.690533966942382 50.934701193333957 -41.655065725882352 -85.690533966942425 50.934701193333936 -277.63731799478018 2.0955284443895465e-05 3.8593080187160915e-05 -0.00012861242697689929 0.0000000000000000 -6.9305128850208936e-07 -2.0317800795102786e-07 7.0290938193046871e-05 0.0051964503608204890 -6.9011976555286113e-10 -1.9822550332014831e-10 5.6715580454509043e-10 0.0000000000000000 -40.313282635619565 -85.652866469445740 67.489144002613742 334.72004880612383 0.0000000000000000 0.0000000000000000 0.0000000000000000 0.0000000000000000 3.3408850625555333 3.7075566312620221 1.3672172080502947 1.1716382436566055 1697.5153620292324 1697.5153618714517 1.1692515334410454 
-44.284280373019939 -94.253843523593801 68.612574448444448 -44.284280373019932 -94.253843523593801 68.612574448444491 -90.343528475473192 0.00014258734721120812 1.2734991939995577e-05 -6.2679654793018784e-05 0.0000000000000000 -5.3758293978748218e-07 5.6607393753544232e-07 6.3027750282483268e-05 0.0051119940174804189 2.6783219377593637e-10 1.8928196489250308e-09 9.6186592395064390e-10 0.0000000000000000 -42.930125987095458 -94.071309017270835 83.274511392489799 283.94561953274422 0.0000000000000000 0.0000000000000000 0.0000000000000000 0.0000000000000000 3.3666971007479658 3.7632515079464399 1.3972312502885549 1.1778014054259052 1393.4866104657924 1393.4866139533722 1.1820333178825562 
-46.442072840454905 -99.329944289570378 51.655708937675428 -46.442072840454927 -99.329944289570420 51.655708937675406 -175.69388792400312 0.00017815652022049486 5.5467537952634989e-05 -0.00020950682641238531 0.0000000000000000 2.1877751499310705e-08 1.7515993100403191e-09 6.9667710441478903e-05 0.0048860163215753262 -3.4232503827952325e-09 1.6070706309230153e-09 -1.2677901206566391e-09 0.0000000000000000 -44.946335306532468 -98.969717126470769 68.015559797458934 339.42980011114588 0.0000000000000000 0.0000000000000000 0.0000000000000000 0.0000000000000000 3.3590757766555290 3.7484226427341016 1.3900891306628891 1.1765994641348536 1508.8614403887261 1508.8614403805482 1.1789920621604824 
-36.821721501807815 -101.20562409615614 59.798170399825139 -36.821721501807815 -101.20562409615610 59.798170399825111 -184.74154322370944 9.8871217989566023e-05 3.4297648195238478e-05 -8.1243228420453486e-05 0.0000000000000000 -5.9156040271389982e-07 3.5901513426893246e-07 6.6440198989555798e-05 0.0055900381442616697 4.2811357861389573e-10 1.8212017454431472e-10 1.4064228219841070e-10 0.0000000000000000 -35.672109309640206 -100.83293553867907 75.360366609178811 338.44965823895870 0.0000000000000000 0.0000000000000000 0.0000000000000000 0.0000000000000000 3.3354681918966382 3.6954964530522281 1.3605394410783023 1.1714882101860704 1521.5905586922881 1521.5905562526432 1.1664122520746727 
-50.580202828811096 -112.61724987173449 48.702726267577056 -50.580202828811096 -112.61724987173444 48.702726267577070 -143.68235682555328 0.00019428664384640379 6.2904081490236216e-07 -0.00010885960211954382 -69.885048242021398 2.3467269349985997e-08 3.0398970007894377e-09 7.1032826035377625e-05 0.0054155517798297904 -1.0484387959725101e-09 1.8376404772005823e-09 -9.5850440482584728e-10 0.0055398795568037066 -48.975793059600008 -111.99207679200002 65.383142959360015 326.57209562220959 0.0000000000000000 0.0000000000000000 0.0000000000000000 0.0000000000000000 3.3531573843036990 3.7324956058377823 1.3798683928354512 1.1758283176342996 1460.7597682530945 1460.7597683893678 1.1746504891360166 
-26.203792994298347 -111.07631859351122 51.043327432649733 -26.203792994298368 -111.07631859351116 51.043327432649697 -278.60821009147162 3.4790706960041761e-05 1.2770475820381089e-05 -9.6678171479206172e-05 0.0000000000000000 1.4103918366537016e-08 2.8905031701498274e-09 6.9950804398644095e-05 0.0058059896397523129 -1.1475232619870264e-10 -1.3368524845003092e-10 -9.8790544941669795e-11 0.0000000000000000 -25.239536857883341 -110.48187134057846 67.469656361758609 349.35568362690350 0.0000000000000000 0.0000000000000000 0.0000000000000000 0.0000000000000000 3.3455662544252784 3.7173184685580773 1.3723156738261459 1.1725688985426759 1719.1562212294959 1719.1562217353282 1.1714533459369938 
-45.548113851049791 -111.87905520691871 61.119958118198170 -45.548113851049791 -111.87905520691868 61.119958118198163 -110.34294526632759 9.3419288257118798e-05 -9.3634621425467350e-05 -4.5364888182377880e-05 0.0000000000000000 2.1534371286158205e-08 2.9683226987486933e-09 6.5292542814177068e-05 0.0056211954173817020 3.0095782865164261e-11 -9.5128103590437332e-10 1.3636102148057681e-09 0.0000000000000000 -44.075852747763513 -111.26860156453857 76.452402029906395 268.59635586333832 0.0000000000000000 0.0000000000000000 0.0000000000000000 0.0000000000000000 3.3630686438532629 3.7569217435717670 1.3945953112798535 1.1772952871898303 1458.0000110121480 1458.0000103093764 1.1809439795579946 
-60.187461176739134 -107.01472927379585 93.473053870170574 -60.187461176739134 -107.01472927379578 93.473053870170574 -11.916239627468117 2.1170039235908934e-05 3.2171906522137298e-05 9.8817397306627504e-06 0.0000000000000000 1.4634089737416907e-06 -1.3961419258321423e-06 5.1478496658882550e-05 0.0047569104142683154 -3.2926381912804582e-10 -1.0038007861105451e-09 1.2573363768187007e-10 0.0000000000000000 -58.254647241440821 -106.62760994408018 105.33920711112118 241.62621693813244 0.0000000000000000 0.0000000000000000 0.0000000000000000 0.0000000000000000 3.3769678297186978 3.7872759527314481 1.4111670394271514 1.1869009539199260 1334.8196108459695 1334.8199427261181 1.1879210162905629 
-66.536473449727211 -90.060150887440045 83.665330784789006 -66.536473449727225 -90.060150887440102 83.665330784788978 -46.834672521632577 -2.6228555703287968e-05 -1.6788297088481853e-05 6.3084058097162438e-05 0.0000000000000000 9.8144368817039033e-07 -1.8499110145324527e-06 5.6052468030568936e-05 0.0051368003513017624 -1.5973065710335896e-09 1.0840320610099751e-10 -1.7730472443617787e-09 0.0000000000000000 -64.370648572599308 -90.090304358695661 96.688480747766732 239.98138923263960 0.0000000000000000 0.0000000000000000 0.0000000000000000 0.0000000000000000 3.3731995081833062 3.7781805909042130 1.4057070349791905 1.1806530510753894 1359.5623490189018 1359.5621953555483 1.1855883186943332 
-78.409809267381192 -99.930727144014938 88.896413946155022 -78.409809267381192 -99.930727144014895 88.896413946155022 -36.949976782418830 -3.6568277941271689e-05 5.2802421750098611e-05 -1.6459551561092243e-05 0.0000000000000000 1.7304243418070802e-06 -1.1905198975171553e-06 5.3508545352904894e-05 0.0049602076931196904 4.2068970559525602e-10 -5.8704723848867119e-10 -1.3725107789953768e-10 0.0000000000000000 -75.913673002404863 -99.702254402691466 101.32606574872912 288.13617662859207 0.0000000000000000 0.0000000000000000 0.0000000000000000 0.0000000000000000 3.3756448371250665 3.7842814865993257 1.4094676322252864 1.1835744918509123 1357.4175595748650 1357.4174340340039 1.1872349678109508 
-57.025950448286835 -93.674200383658800 91.173791068132317 -57.025950448286864 -93.674200383658842 91.173791068132289 -44.827372770630397 2.0923477316740420e-06 3.1520037903489202e-05 3.3447073610839544e-05 0.0000000000000000 1.2301428963105645e-06 -1.7617771593593013e-06 5.2895244415150372e-05 0.0052311784008204389 4.8179498674686610e-10 -8.1023293020699008e-10 7.5233797369550080e-10 0.0000000000000000 -55.164710769962618 -93.586508083202432 103.32606452766413 222.68531933077850 0.0000000000000000 0.0000000000000000 0.0000000000000000 0.0000000000000000 3.3705049187866227 3.7713117993075400 1.4014907763547813 1.1828836792897841 1386.7187193877955 1386.7192304796522 1.1838444433821913 
-47.280534356882001 -177.82112920817050 149.96099418799864 -47.280534356882008 -177.82112920817050 149.96099418799858 -10.662934612725991 -3.1244724271873427e-05 -1.7007281110703178e-05 5.1296291421089244e-05 0.0000000000000000 2.2199815874479615e-08 9.3618794938521432e-09 2.4222784727356839e-05 0.0040932664289116535 3.6191334638655344e-10 3.7808997119008135e-10 -5.5537869020614587e-10 0.0000000000000000 -45.762777822239421 -175.89580528354742 155.64915507299250 248.91339099022119 0.0000000000000000 0.0000000000000000 0.0000000000000000 0.0000000000000000 3.3702218778994668 3.7696070199600475 1.4000283791532560 1.1810864685804432 1295.9259037382556 1295.9259034760366 1.1832147456840116 
-53.106242026769657 -187.68481504128121 163.98831122913475 -53.106242026769671 -187.68481504128115 163.98831122913475 -19.023819295181081 7.6407785313596899e-06 -8.7929887794360902e-06 -9.0900490236210978e-06 -28.536708441676769 2.4437566303880942e-08 1.0318230048156352e-08 1.7738185462690126e-05 0.0041306824186769847 -9.8675154914457043e-11 7.5006631694683722e-11 1.2250593865063671e-10 0.0041414708267166478 -51.435495451599998 -185.56281141599996 168.15371392000000 294.81703600272857 0.0000000000000000 0.0000000000000000 0.0000000000000000 0.0000000000000000 3.3526795305666606 3.7324534753157459 1.3803661367505187 1.1759055663838300 1275.0014379524689 1275.0014351411862 1.1748951056538355 
-44.111420760343492 -172.99546446743597 161.87026225205472 -44.111420760343464 -172.99546446743594 161.87026225205466 -16.037273101787722 8.8889158195784579e-06 -7.4586417439430691e-06 4.5563377599165279e-06 0.0000000000000000 8.7283214431936481e-08 -3.9539422693023210e-07 1.8852674076911776e-05 0.0041618269691528053 -8.4412293017594579e-11 -1.1213972671663096e-10 9.5799408048326569e-11 0.0000000000000000 -42.672974891599750 -171.18173466392949 166.26923354793541 271.88244999766295 0.0000000000000000 0.0000000000000000 0.0000000000000000 0.0000000000000000 3.3566025950221654 3.7408771633905173 1.3848864958532738 1.1773916190549607 1275.6743891542685 1275.6743779060564 1.1768135676411946 
-61.267814126229091 -179.98587180743434 152.31836320094220 -61.267814126229055 -179.98587180743431 152.31836320094223 -28.071612387957323 -6.5891723711181520e-06 -5.8503693616734709e-06 -3.7029040291700828e-06 0.0000000000000000 2.7572548133569796e-08 9.5717596071409616e-09 2.3133011577414212e-05 0.0042568894921003880 8.3416084851605624e-11 1.8903030323768794e-11 9.4946046456857007e-11 0.0000000000000000 -59.382734921100123 -178.01738339707751 157.75061606229067 243.94852352315442 0.0000000000000000 0.0000000000000000 0.0000000000000000 0.0000000000000000 3.3560090492534873 3.7389507035350915 1.3835140334506979 1.1771293394862956 1292.8884281410535 1292.8884173945482 1.1762311221982744 
-31.749403144102871 -103.12935013854464 82.195086840854472 -31.749403144102871 -103.12935013854468 82.195086840854444 -48.905966326097918 2.7171686381595201e-05 6.1093614095690212e-05 -0.00010927952856781930 0.0000000000000000 -2.4571170676078741e-07 7.9673325720581426e-08 5.7009640574330995e-05 0.0051410196190646565 -9.0577683026191060e-10 2.3210431362581800e-10 3.2344537381352013e-10 0.0000000000000000 -30.660097366607719 -102.72526557899965 95.328291536857705 204.58703120518373 0.0000000000000000 0.0000000000000000 0.0000000000000000 0.0000000000000000 3.3671978185912885 3.7617866443806052 1.3951513193937766 1.1795734791816228 1347.1720148449160 1347.1719810667564 1.1811540474373710 
-19.594920810147201 -111.50902648328298 80.079810297788327 -19.594920810147190 -111.50902648328294 80.079810297788313 -124.24215782718046 6.9222028862169906e-05 -1.8453199310744492e-06 -0.00011091182348625400 0.0000000000000000 1.1565347901587586e-08 2.9324513928230540e-09 5.6527713219622910e-05 0.0054065623043349663 5.3435140227219048e-11 1.8690967198396347e-11 7.8989638632592023e-11 0.0000000000000000 -18.804221549666405 -110.90595113131390 93.354036648627854 267.24800799435923 0.0000000000000000 0.0000000000000000 0.0000000000000000 0.0000000000000000 3.3499555647010153 3.7246535080386951 1.3751925673704697 1.1744762608892390 1462.7190964662143 1462.7190859416105 1.1726941152576351 
-34.921220913951807 -105.19448859103014 70.564287499904665 -34.921220913951828 -105.19448859103019 70.564287499904637 -117.29151203603392 8.0758401770006765e-05 -2.5932350629070444e-05 -8.1953162741937608e-05 0.0000000000000000 -8.2724917045638279e-07 6.1017312084061170e-07 6.2326961176660913e-05 0.0054124583772719587 -4.9048499912818978e-10 1.2596120053049390e-10 -1.3624862867437948e-12 0.0000000000000000 -33.815892125380543 -104.71065599625929 85.007910193808286 270.69679205096202 0.0000000000000000 0.0000000000000000 0.0000000000000000 0.0000000000000000 3.3440046859245887 3.7141679609614893 1.3707340777513906 1.1735441940664679 1417.7599440989629 1417.7599563175170 1.1707522072487746 
-19.715037387525573 -100.76859467519159 82.372751620548115 -19.715037387525573 -100.76859467519164 82.372751620548115 -88.877998004054930 3.1711347374901327e-05 -1.7272723895712284e-05 -2.1963891164626624e-05 0.0000000000000000 1.1611484995732725e-08 1.8910923937909274e-09 5.5467723946378555e-05 0.0051028696284606719 1.2991628889331751e-10 4.1188892048181105e-10 1.2859782924080973e-10 0.0000000000000000 -18.921183722278450 -100.37968114352928 95.398064000337470 185.31956687594098 0.0000000000000000 0.0000000000000000 0.0000000000000000 0.0000000000000000 3.3567086510114219 3.7394163728595657 1.3832384051160285 1.1756611697854917 1418.2211393465668 1418.2211648383707 1.1761263387438918 
-32.227655804445952 -118.68513794396311 169.71333031907164 -32.227655804445938 -118.68513794396311 169.71333031907167 -60.536003055397650 5.8756415478579314e-05 6.9021130047399541e-05 -1.9094987906229789e-06 0.0000000000000000 -1.0765030010178609e-07 -5.4088785624335826e-07 1.4420101778465610e-05 0.0047633250263650053 -1.8764829095278913e-10 -4.3181160675325118e-10 -2.4636679351867885e-10 0.0000000000000000 -31.124431206993112 -117.97934695114738 173.21200361760444 258.17126679857051 0.0000000000000000 0.0000000000000000 0.0000000000000000 0.0000000000000000 3.3586171284353608 3.7443654801898996 1.3863177648667682 1.1782910750350488 1358.2835640918349 1358.2811661245423 1.1774180551394648 
-31.755280706527511 -134.16711736716965 160.24919188274728 -31.755280706527511 -134.16711736716968 160.24919188274728 -35.108273604603120 3.0116067311402519e-05 7.7166597017355986e-06 -7.8360549810303071e-06 0.0000000000000000 2.0200790022886179e-07 -4.3399348697079354e-07 1.9246130357674621e-05 0.0043782763288964070 -1.8438067110854018e-10 -1.8914888483504613e-10 -3.9484212011119088e-11 0.0000000000000000 -30.642131568542830 -133.13454878399213 164.80820313575899 262.24283076768535 0.0000000000000000 0.0000000000000000 0.0000000000000000 0.0000000000000000 3.3625055929752956 3.7537382816353251 1.3918759214509955 1.1799326816192812 1334.1689203363758 1334.1675519893781 1.1797763938335770 
-44.127413483414045 -120.80934203198812 159.07716965538805 -44.127413483414074 -120.80934203198817 159.07716965538796 -12.603588134039800 6.8535232981282751e-05 1.9945766689760032e-05 -5.5920717072946635e-06 0.0000000000000000 3.6415702531606231e-07 -1.3617842929814535e-06 1.8988060999818371e-05 0.0044061337235020703 -6.4531772944371754e-10 -3.0592213195388166e-10 -9.1296864423656427e-10 0.0000000000000000 -42.676694985445003 -120.10595080876966 163.70375490782192 268.28772502602959 0.0000000000000000 0.0000000000000000 0.0000000000000000 0.0000000000000000 3.3788502772301561 3.7904030404811371 1.4123556837860678 1.1864293943015936 1330.3798151622975 1330.3801438663859 1.1884189960217286 
-24.671335295538977 -114.90475283750095 156.87519267952175 -24.671335295538967 -114.90475283750087 156.87519267952177 -77.841281404578652 2.5606682092007864e-05 2.1522317762201014e-05 1.6593431086722724e-05 0.0000000000000000 1.3515276342523917e-08 3.2616884748648545e-09 2.1026463819850960e-05 0.0046229901542586428 -2.0890631720534717e-10 -1.8916346306454778e-10 -1.3571491512564454e-10 0.0000000000000000 -23.747323328369049 -114.23396745764113 161.81277151251504 321.01516800445251 0.0000000000000000 0.0000000000000000 0.0000000000000000 0.0000000000000000 3.3517450305678516 3.7296648008217907 1.3784597400328471 1.1756109745128218 1382.6872651557926 1382.6944906334199 1.1740861319577178 
-6.9213234474039620 -105.47021557010856 98.002948512202082 -6.9213234474039629 -105.47021557010861 98.002948512202067 -17.097983580264646 4.2748400189441057e-06 -5.9923812683248886e-06 -5.9619389277957857e-05 13.141800032293350 6.6972216661298498e-09 2.3469419740962398e-09 4.8242139527587824e-05 0.0042533561982802453 -1.3928230460046622e-10 2.9027025601414635e-10 7.7663186634493567e-10 0.0040108883661458903 -6.4634479885999987 -104.98755276399999 109.33149947120000 327.67017865987640 0.0000000000000000 0.0000000000000000 0.0000000000000000 0.0000000000000000 3.3542711873860251 3.7358518181155707 1.3821731053074588 1.1761024395899031 1245.5609630641845 1245.5603744090915 1.1756592435996491 
-12.408822162280064 -97.439410887338013 89.147853104991498 -12.408822162280062 -97.439410887338013 89.147853104991512 -71.065628991683795 2.7031414814534528e-06 -1.4215255368863224e-05 -7.6061497778821420e-05 -63.857794375528087 8.8050545188345097e-09 1.5682970477826071e-09 5.2335705326811421e-05 0.0048211600411364698 3.4860775895011805e-11 -5.4584053104949084e-11 4.8961043491260341e-10 0.0047864076942818060 -11.806838433999999 -97.116880539599975 101.43768333439998 212.90238721710071 0.0000000000000000 0.0000000000000000 0.0000000000000000 0.0000000000000000 3.3537587611768815 3.7343696101354373 1.3811868167058245 1.1754685047904097 1367.1510633252831 1367.1510524029443 1.1752387862578977 
-16.560619524538463 -110.95207260727427 91.009713757662837 -16.560619524538467 -110.95207260727425 91.009713757662880 -57.450357598948841 2.3479036301959360e-05 -1.1288893720347815e-05 -0.00014538081314659603 0.0000000000000000 1.0399823502371675e-08 2.8784563621542251e-09 5.1474997597722449e-05 0.0046851304087187689 -6.1528269078479646e-10 2.0694401962271639e-10 9.7277217280327569e-10 0.0000000000000000 -15.849604639409371 -110.36010279166017 103.09742667861765 236.22178992679409 0.0000000000000000 0.0000000000000000 0.0000000000000000 0.0000000000000000 3.3508257492776319 3.7284068825570800 1.3781593100173941 1.1755196622349542 1339.9311981018409 1339.9313019818483 1.1739518249759913 
-24.673651446449263 -99.905924541210481 90.094815779656855 -24.673651446449259 -99.905924541210439 90.094815779656813 -44.323998545395717 3.6930429950520736e-05 5.0437977398422815e-05 -8.5482817449286598e-05 0.0000000000000000 1.3516165076055129e-08 1.8074459706696189e-09 5.1897939972178619e-05 0.0047231652582958774 8.4843371588791207e-11 -4.9966726760614399e-10 8.1606656690103316e-10 0.0000000000000000 -23.749578654390465 -99.534212460059550 102.28184693721489 211.57004919854941 0.0000000000000000 0.0000000000000000 0.0000000000000000 0.0000000000000000 3.3561185538301861 3.7400943255974348 1.3845878404642133 1.1773039267406247 1325.0500632111834 1325.0497915072667 1.1766850013802532 
-55.925230469709845 -108.82853137911152 103.03831465332260 -55.925230469709838 -108.82853137911157 103.03831465332264 -4.6571763159850930 6.6792307694142360e-06 3.4471878748803667e-06 -7.4164200295254649e-06 0.0000000000000000 2.1730470778794288e-06 -1.0842810395831581e-06 4.6979813508685470e-05 0.0047855209892823216 4.2625168434080525e-10 1.2920683969346943e-10 -1.1803459526844814e-09 0.0000000000000000 -54.087034329299712 -108.37170302860723 113.84396407125838 191.01171882188567 0.0000000000000000 0.0000000000000000 0.0000000000000000 0.0000000000000000 3.3763469891460516 3.7852233146449277 1.4096927729928519 1.1868658504633891 1319.8377998797041 1319.8365711469339 1.1873074872444886 
-43.181216039806309 -108.20282990045806 99.804428447778633 -43.181216039806280 -108.20282990045811 99.804428447778676 -8.6691846339691701 -9.9758659029026523e-06 6.3465643124210182e-06 1.1206401719448223e-05 0.0000000000000000 1.8345687306004253e-06 -1.2795618044405985e-06 4.8777481663326470e-05 0.0041837476334463386 6.9737944236700546e-10 -1.4391707120929216e-09 -4.9610600289393958e-10 0.0000000000000000 -41.690910404717421 -107.74885629568415 110.97670241767709 270.34727434602189 0.0000000000000000 0.0000000000000000 0.0000000000000000 0.0000000000000000 3.3744350473867395 3.7797362896486635 1.4060275139220060 1.1854278912121636 1326.8590023805880 1326.8590339038592 1.1857602365361071 