# For a description of the Tecplot format see the Tecplot User's guide.
#
Variables=x,y,z,s_u,s_v,s_w,s_p,mono_f_vel_u,mono_f_vel_v,mono_f_vel_w,const,u_nu,v_nu,w_nu,p_nu,x_nu,y_nu,z_nu,const,u_ref,v_ref,w_ref,vol_ref,x_ref,y_ref,z_ref,const,I1,I2,I3,J,p1,p2,p3
Zone f=fepoint, n=1339, e=6475, et=brick, c=black
-59.0290 -70.4307 175.784 -59.028982926476267 -70.430665813736738 175.78404342055686 -103.77383216502776 -1.0569567865198799e-09 -2.2521123576166108e-07 9.6470668311071530e-07 -104.60568651903176 4.3048627162978199e-11 -1.6952550474513828e-12 1.9799974104728338e-08 -0.00010117991636922791 -8.2247623156968599e-14 8.5891271514001560e-15 -6.7718828096416508e-14 -0.00010109823217629151 -58.668039002000000 -70.473359259200009 176.35421013599998 215.13583165143561 0.0000000000000000 0.0000000000000000 0.0000000000000000 0.0000000000000000 3.0635838675680320 3.1281057894564483 1.0645259368658535 1.0313213577172902 423.62301807158741 423.62300665184472 1.0317595400784489 
-65.356910470906570 -76.395500546833176 183.62251704974773 -65.356910470906556 -76.395500546833176 183.62251704974776 -108.44412337438470 -2.9657996061822998e-06 -4.4994481118526761e-06 4.8143528711694073e-06 -108.49381410444791 4.6962052302479407e-11 -7.6177952834655116e-13 1.3959833289334256e-08 -0.00010040465889821828 -1.7879387217747578e-13 9.2960711917493765e-13 -1.3388795932550578e-12 -0.00010031311785349615 -64.963123215600007 -76.414687385200040 184.02450960799996 253.42820447565578 0.0000000000000000 0.0000000000000000 0.0000000000000000 0.0000000000000000 3.0646968693689285 3.1303780994871366 1.0656856179933807 1.0313213577172906 435.80982303293962 435.80982189378506 1.0323225585148459 
-70.081903614083586 -71.545847572248107 176.68585388212514 -70.081903614083572 -71.545847572248121 176.68585388212520 -105.11367798793539 -2.3427156278417128e-06 -7.3575204367515292e-07 2.9811406807676437e-07 -107.26369544459756 4.9882438457604650e-11 -1.5251688800788090e-12 1.9128055583905738e-08 -0.00010116445911982545 4.9125237568446157e-13 1.6306531104738625e-13 -8.0672248089221845e-14 -0.00010095559204165263 -69.663592608799988 -71.584146237200002 177.23667228800005 218.29881668600640 0.0000000000000000 0.0000000000000000 0.0000000000000000 0.0000000000000000 3.0652869148139992 3.1315697722435236 1.0662873157266259 1.0313213577172906 432.20262594094191 432.20262117350165 1.0326148038166085 
-57.518107431722292 -87.752343266739132 170.99798737154941 -57.518107431722278 -87.752343266739103 170.99798737154933 -97.873755372939428 -3.1929888198614596e-06 4.8321740027429051e-06 1.1906552513770539e-05 0.0000000000000000 4.2109656039901473e-11 1.0106360193162800e-12 2.3365867463098766e-08 -0.00010236462801697342 -1.5845011084726485e-13 -1.8774461830966951e-12 -1.9341884778975509e-12 0.0000000000000000 -57.165005282198301 -87.726774323660578 171.67083873969227 259.76550921814646 0.0000000000000000 0.0000000000000000 0.0000000000000000 0.0000000000000000 3.0583242317338191 3.1173658941081857 1.0590437889261426 1.0296278846160329 394.11430965129699 394.11433604677171 1.0290970770373571 
-89.417009172707850 -83.386285277310321 115.24386629700101 -89.417009172707836 -83.386285277310378 115.24386629700106 -88.715266872759585 -5.6054444845825663e-07 8.1980597854586815e-06 -3.9060172598998662e-06 0.0000000000000000 6.1851586352634769e-11 3.3728575488112256e-13 6.4905926855374219e-08 -0.00011522003774665216 3.6559565691397321e-12 -4.8060330924106185e-13 -3.3119509762098231e-12 0.0000000000000000 -88.898344731952406 -83.377922378373768 117.11292023788836 283.91631954144174 0.0000000000000000 0.0000000000000000 0.0000000000000000 0.0000000000000000 3.0586729643065116 3.1179759092559127 1.0593044778024134 1.0297348588784039 377.92722148920325 377.92805762452548 1.0292244034773850 
-98.159733886137403 -66.844876074859414 106.15612021314732 -98.159733886137388 -66.844876074859400 106.15612021314732 -102.33804230893526 1.1969722212199577e-07 2.8878298582155561e-06 -1.6709643338665518e-05 -104.77573099752395 6.7265699954521807e-11 -2.2502000263102673e-12 7.1676831581157785e-08 -0.00012113524068062087 -1.4047295069090659e-13 1.4627041140234439e-12 -9.9813009469481967e-12 -0.00012084213733452807 -97.595692787999965 -66.901700632800015 108.22015140479995 322.25788568967050 0.0000000000000000 0.0000000000000000 0.0000000000000000 0.0000000000000000 3.0644805264017312 3.1299667877870077 1.0654907964768672 1.0313213577172891 424.04024707929881 424.04387659181435 1.0322279822614022 
-80.133011300429416 -67.477117188929128 106.56011123006448 -80.133011300429416 -67.477117188929171 106.56011123006448 -100.13392424619171 -4.2055077568230276e-06 3.9408651307350003e-06 -7.5858018280251752e-06 0.0000000000000000 5.6114564384035504e-11 -2.1545543127388100e-12 7.1375839461040869e-08 -0.00012075248405281450 -7.7756740974884546e-13 -2.2006051401039309e-12 -1.0397803420204025e-11 0.0000000000000000 -79.662532843379708 -67.531450170133141 108.61547480962874 295.38956150422752 0.0000000000000000 0.0000000000000000 0.0000000000000000 0.0000000000000000 3.0603848083658725 3.1215672100371994 1.0611853382977792 1.0302241699827783 405.46803865257726 405.46739767708453 1.0301370742238805 
-95.025561940835459 -81.841779760252862 106.57118216336960 -95.025561940835416 -81.841779760252862 106.57118216336954 -98.272637851139038 -6.0869616179957545e-06 5.3058451161358351e-06 -1.2530451884859337e-05 0.0000000000000000 6.5324030906754884e-11 8.6708418223224726e-14 7.1367581178094497e-08 -0.00012314228860075012 -1.5366772548346391e-12 -5.7691732891742043e-12 -1.5603702080712514e-11 0.0000000000000000 -94.477787882002133 -81.839503548705352 108.62630821647583 293.80807890400462 0.0000000000000000 0.0000000000000000 0.0000000000000000 0.0000000000000000 3.0603526100027860 3.1214592855906762 1.0611092753749132 1.0301817513464457 399.37470754470201 399.37202106412883 1.0301000242404077 
-47.637923930809237 -126.12500105781508 137.31478588820508 -47.637923930809222 -126.12500105781508 137.31478588820514 -47.863539453320229 4.6401980507277435e-07 3.4158111405035710e-06 1.0137707511087497e-05 0.0000000000000000 -1.2262637440623922e-08 1.1470254819429942e-09 -2.1644163268713200e-08 -0.00010660852140108307 1.2807556209665728e-12 -1.1645777446226600e-12 -3.3038055680264717e-12 0.0000000000000000 -47.292355390977058 -125.96433165720771 138.67232254046354 244.31333887135355 0.0000000000000000 0.0000000000000000 0.0000000000000000 0.0000000000000000 3.0687759845141187 3.1388169666673642 1.0700479047537885 1.0346225934717135 345.88851515628261 345.88858997089318 1.0344310833234074 
-34.447485920443107 -140.67260756119131 137.83909131369512 -34.447485920443107 -140.67260756119137 137.83909131369504 -47.662428111042452 5.8649617785322956e-06 -8.0113949818177440e-07 4.9911189398052375e-06 0.0000000000000000 -4.6315987221323894e-09 -1.9749520225548222e-09 2.3088198375791645e-08 -0.00010562356187504488 3.7579852961558004e-12 -2.5696699216363220e-12 -4.5617103538825388e-12 0.0000000000000000 -34.196989160350306 -140.43319657724166 139.21506628885933 210.16870282748488 0.0000000000000000 0.0000000000000000 0.0000000000000000 0.0000000000000000 3.0676609929300445 3.1365080237503373 1.0688529360692163 1.0338862618907969 341.97795199186135 341.97670213439056 1.0338539076267634 
-31.164551327953923 -127.82462439391391 141.42122317202066 -31.164551327953941 -127.82462439391387 141.42122317202063 -53.437821774447684 4.1701264528101819e-06 1.9377538299518834e-06 1.0355722906926737e-05 0.0000000000000000 2.5798897740347826e-11 7.2772898818129761e-12 4.5402274828632017e-08 -0.00010410772687613206 -4.9168697147092335e-13 -3.2802086024712538e-13 -6.7427741947746932e-12 0.0000000000000000 -30.948229910445860 -127.64113600963313 142.72864290474456 229.21992526850030 0.0000000000000000 0.0000000000000000 0.0000000000000000 0.0000000000000000 3.0656904056230974 3.1324565939259337 1.0667712161360661 1.0330883919606415 344.90952312821128 344.90986661413206 1.0328457559414728 
-48.755355992921743 -131.08660118984386 145.67232042502275 -48.755355992921743 -131.08660118984383 145.67232042502280 -49.245018592801401 4.0331868546284533e-06 1.1469924621536143e-05 -3.4383755150830391e-06 0.0000000000000000 -1.1769589260451933e-08 5.0126277286303485e-09 -1.6193899248693145e-08 -0.00010226795177384506 2.8351852574503598e-13 4.5082407418751507e-12 -6.4937457663894075e-12 0.0000000000000000 -48.406431667502837 -130.90513559487593 146.85896726379221 225.63426853136377 0.0000000000000000 0.0000000000000000 0.0000000000000000 0.0000000000000000 3.0695034866982995 3.1402765158474368 1.0707797779852806 1.0345855449611998 348.02991074743943 348.02996552331956 1.0347848578195666 
-53.342140635930413 -84.914222560990311 74.901983427989506 -53.342140635930420 -84.914222560990311 74.901983427989521 -96.275967795865398 -3.1478011114675174e-06 3.1136478946867058e-05 -5.8851518310159301e-05 0.0000000000000000 2.4696615882219341e-09 -5.8879819785745184e-08 3.2819728230776785e-08 -0.00019308406356034150 -7.9878457899775567e-12 -1.9077764391165886e-10 -2.6406293735628739e-11 0.0000000000000000 -53.009977022357148 -84.940192361847963 77.707205907375524 356.07450292316213 0.0000000000000000 0.0000000000000000 0.0000000000000000 0.0000000000000000 3.0619901038258401 3.1248162171484228 1.0628288451296857 1.0309323810004616 387.17057335516068 386.59266459879893 1.0309309401076983 
-40.575512005385406 -85.657867854702673 64.499341416797606 -40.575512005385441 -85.657867854702687 64.499341416797563 -133.23419551308103 1.0726977867008456e-07 9.0930550285807666e-06 -3.1363006886260379e-05 0.0000000000000000 -5.1944942890300759e-09 -9.7171628820604436e-09 1.0209394030640375e-07 -0.00017254731002669727 -2.3860604582027739e-11 -1.9935792171410582e-11 4.0950315593643136e-11 0.0000000000000000 -40.313282635619565 -85.652866469445740 67.489144002613742 334.72004880612383 0.0000000000000000 0.0000000000000000 0.0000000000000000 0.0000000000000000 3.0591357480829227 3.1191072786367990 1.0599748482688052 1.0301816901491567 459.31475332507938 461.19839542567252 1.0295494034171504 
-43.195600939203409 -94.087857127506481 80.609316930674893 -43.195600939203388 -94.087857127506538 80.609316930674879 -82.109832077969344 3.1960656171794375e-05 7.5274488265978596e-06 -2.5121409747274754e-05 0.0000000000000000 -1.8836623834489823e-08 -5.1762545251686174e-09 1.3485322109720264e-09 -0.00017620400955500204 -1.0488152255305773e-10 -1.2607993656332445e-11 -1.3687057207306030e-10 0.0000000000000000 -42.930125987095458 -94.071309017270835 83.274511392489799 283.94561953274422 0.0000000000000000 0.0000000000000000 0.0000000000000000 0.0000000000000000 3.0633110433010469 3.1275417172609825 1.0642342729741541 1.0311492136664901 374.23059914745158 374.11888374182649 1.0316158738768531 
-45.235689012556691 -99.039768285220447 65.070028042047539 -45.235689012556669 -99.039768285220404 65.070028042047568 -111.65818664334178 2.2484460467433918e-05 1.5983047582414597e-05 -4.7432812149125982e-05 0.0000000000000000 3.4505100166004610e-11 2.7760571619239731e-12 1.0228837776793398e-07 -0.00017782631394649596 1.1182961767737642e-11 2.1196600740666975e-11 1.0099039957458275e-10 0.0000000000000000 -44.946335306532468 -98.969717126470769 68.015559797458934 339.42980011114588 0.0000000000000000 0.0000000000000000 0.0000000000000000 0.0000000000000000 3.0623521095446233 3.1256893006527284 1.0633418295521393 1.0309422231360386 424.55270001151814 424.88073115128043 1.0311827192608796 
-35.895344902481646 -100.89739175424373 72.547765414535917 -35.895344902481639 -100.89739175424376 72.547765414535903 -104.40113589857422 1.7436162720902644e-05 1.0744555389261976e-05 -2.3613109929899184e-05 0.0000000000000000 -1.5232291095189719e-08 9.7603559056223172e-09 7.1935836748819772e-08 -0.00017091629672206935 -5.2226889467623590e-11 2.9596967880643700e-11 -1.9812951616138883e-11 0.0000000000000000 -35.672109309640206 -100.83293553867907 75.360366609178811 338.44965823895870 0.0000000000000000 0.0000000000000000 0.0000000000000000 0.0000000000000000 3.0578423244369426 3.1164769630088625 1.0586377636284683 1.0300198583883686 403.83487381596876 403.75117166284866 1.0289006575206381 
-49.286169647854273 -112.11365035207710 62.379894489661517 -49.286169647854273 -112.11365035207707 62.379894489661517 -99.630552043282918 3.2864631401080348e-05 1.2533043164357686e-05 -2.8918310412307844e-05 -86.161128110815994 3.7014953602199085e-11 4.8253623319283187e-12 1.0429267671696607e-07 -0.00015649539545572070 2.9064504543243093e-11 -2.3675777090459442e-11 9.2074797391718751e-12 -0.00014501229022418729 -48.975793059600008 -111.99207679200002 65.383142959360015 326.57209562220959 0.0000000000000000 0.0000000000000000 0.0000000000000000 0.0000000000000000 3.0627389719563616 3.1263539928420987 1.0636183783171005 1.0312060921873318 406.69037394389426 407.36002493224908 1.0313166439005916 
-25.426074322044332 -110.59746983827421 64.512155471303544 -25.426074322044322 -110.59746983827425 64.512155471303529 -123.95130968380293 6.1231548194660271e-06 6.6874620831920949e-06 -2.7079843567810737e-05 0.0000000000000000 2.2244685260464084e-11 4.5854986474580520e-12 1.0270402217571471e-07 -0.00015552478497104762 -5.9282189718261114e-12 7.8984121524661688e-12 -8.2358978228064301e-13 0.0000000000000000 -25.239536857883341 -110.48187134057846 67.469656361758609 349.35568362690350 0.0000000000000000 0.0000000000000000 0.0000000000000000 0.0000000000000000 3.0607320930071995 3.1223298696249207 1.0616013332937062 1.0305610977568804 449.74161934746184 449.43500028449478 1.0303395631442276 
-44.360664886798389 -111.38731272625030 73.691851165654995 -44.360664886798396 -111.38731272625034 73.691851165654967 -84.293883567775339 1.7605458625166891e-05 -1.4875109863358290e-05 -1.4901546596894521e-05 0.0000000000000000 3.3969223267593662e-11 4.7038484218830953e-12 9.5864604254813912e-08 -0.00015654060430100855 6.7635927285228934e-12 1.3628649431374493e-11 -4.3369412371055882e-11 0.0000000000000000 -44.075852747763513 -111.26860156453857 76.452402029906395 268.59635586333832 0.0000000000000000 0.0000000000000000 0.0000000000000000 0.0000000000000000 3.0646591920566899 3.1303738978267615 1.0657197488069403 1.0310120634065378 389.16815184415708 389.22114683288044 1.0323375538211694 
-58.662605360853455 -106.66008428402624 103.19560899433996 -58.662605360853433 -106.66008428402621 103.19560899433996 -40.618281743415928 6.0491143234808087e-06 2.2894724890365620e-05 -9.6445767198990185e-08 0.0000000000000000 -4.7394868979953336e-09 -1.5112228690466057e-08 -1.0491095063927843e-08 -0.00012745298930169155 4.5362480868957856e-12 6.0814946898024213e-12 -1.5604293620415945e-11 0.0000000000000000 -58.254647241440821 -106.62760994408018 105.33920711112118 241.62621693813244 0.0000000000000000 0.0000000000000000 0.0000000000000000 0.0000000000000000 3.0725749591483269 3.1465109903346344 1.0739436832608080 1.0359103883204617 342.15971153562168 342.16331758901231 1.0363122114678520 
-64.814756874810470 -90.049536237511219 94.321981506615131 -64.814756874810442 -90.049536237511177 94.321981506615160 -66.537682387060897 -1.1216684242770575e-05 6.6098862636778202e-06 1.7764160047019760e-05 0.0000000000000000 5.0089698735939126e-10 1.8479940958451489e-09 2.6903634905973595e-09 -0.00013439683853794262 -2.4566877284763203e-11 4.2275251377626851e-12 1.9466733526744264e-11 0.0000000000000000 -64.370648572599308 -90.090304358695661 96.688480747766732 239.98138923263960 0.0000000000000000 0.0000000000000000 0.0000000000000000 0.0000000000000000 3.0667900212756987 3.1346141599872510 1.0678279281667746 1.0321176432376875 360.48683072325525 360.47408699848069 1.0333539680903270 
-76.432064555365727 -99.718922890430903 99.073136106754305 -76.432064555365727 -99.718922890430846 99.073136106754234 -60.580286703329477 -1.9256223099838279e-05 2.2703141284243740e-05 -4.9278787684088754e-06 0.0000000000000000 -6.8344124822796896e-09 -9.0691821050041997e-09 1.4584665341401801e-08 -0.00013521884398890875 -1.0543782005708844e-11 1.2240682536868877e-11 -2.1492573429960043e-11 0.0000000000000000 -75.913673002404863 -99.702254402691466 101.32606574872912 288.13617662859207 0.0000000000000000 0.0000000000000000 0.0000000000000000 0.0000000000000000 3.0685710535451598 3.1382926640434663 1.0697270172055939 1.0333528859579826 358.75538751882544 358.75410825897052 1.0342778950069222 
-55.551260371560296 -93.562572191845135 101.12493719146582 -55.551260371560311 -93.562572191845135 101.12493719146582 -61.815432645601611 -8.7955208006613425e-07 1.1805362930231410e-05 6.8066903828944046e-06 0.0000000000000000 9.6403168495623490e-10 -5.1442694602273077e-09 -1.5719139951083998e-08 -0.00012783106071213415 -2.5584563850305495e-12 -7.8615240792732095e-12 9.0475939683928283e-13 0.0000000000000000 -55.164710769962618 -93.586508083202432 103.32606452766413 222.68531933077850 0.0000000000000000 0.0000000000000000 0.0000000000000000 0.0000000000000000 3.0671335279660656 3.1352643482597857 1.0681346698290388 1.0333095555441234 366.28416815880695 366.28070831477902 1.0335064065722757 
-46.056391152239669 -176.27021117434077 154.62502235563232 -46.056391152239691 -176.27021117434077 154.62502235563230 -50.569130872683168 -1.0174702780489327e-05 -1.2068647040194980e-05 2.3282047510990817e-05 0.0000000000000000 3.5013582311282931e-11 1.4840906281676780e-11 3.5564662326237340e-08 -9.8807579800336924e-05 5.0025971865174533e-12 5.4783996020931120e-13 -3.2755456847063857e-12 0.0000000000000000 -45.762777822239421 -175.89580528354742 155.64915507299250 248.91339099022119 0.0000000000000000 0.0000000000000000 0.0000000000000000 0.0000000000000000 3.0674784549817482 3.1359851137481058 1.0685110368458270 1.0329301496272003 334.89434710587187 334.89527605436507 1.0336871496380944 
-51.758705040440667 -185.97546439736561 167.40374828735597 -51.758705040440653 -185.97546439736561 167.40374828735597 -56.859972266838106 7.8126907178559921e-07 -1.3290698012359884e-06 -8.4868001968733882e-07 -59.641867104576441 3.8548393643811352e-11 1.6353474130426093e-11 2.6043771583772465e-08 -9.4026656608295754e-05 8.5081410978728719e-14 -2.3159496683939800e-12 -2.3350580529330120e-12 -9.4270073911206721e-05 -51.435495451599998 -185.56281141599996 168.15371392000000 294.81703600272857 0.0000000000000000 0.0000000000000000 0.0000000000000000 0.0000000000000000 3.0621910792296547 3.1252703258555319 1.0630829124744632 1.0313553659404986 335.13861359804758 335.17396497371999 1.0310595711724988 
-42.952941886942305 -171.53453366916409 165.48063395068596 -42.952941886942298 -171.53453366916406 165.48063395068587 -55.355684479719542 1.5567751585720722e-06 -1.6224135693127289e-06 6.3020879238503073e-06 0.0000000000000000 2.2168689963775497e-10 8.6953840829953068e-09 2.1047017131715293e-08 -9.5600172809877918e-05 2.1738859669477888e-12 3.9479516365850741e-12 -2.2305081215911932e-12 0.0000000000000000 -42.672974891599750 -171.18173466392949 166.26923354793541 271.88244999766295 0.0000000000000000 0.0000000000000000 0.0000000000000000 0.0000000000000000 3.0629141379175446 3.1267483194756505 1.0638380940176615 1.0316742813422770 333.39199201699296 333.40027068022493 1.0314254015581659 
-59.747407627228526 -178.40018321967901 156.77255865555355 -59.747407627228533 -178.40018321967906 156.77255865555347 -59.993651544116453 -6.5197088895297632e-06 -2.1591291889544259e-06 -7.0995469362520715e-07 0.0000000000000000 4.3492494328223324e-11 1.5182299861749016e-11 3.3964641765749086e-08 -9.6897904496184986e-05 -6.9190504936788679e-13 7.3883067040364156e-13 -2.5215552600147763e-12 0.0000000000000000 -59.382734921100123 -178.01738339707751 157.75061606229067 243.94852352315442 0.0000000000000000 0.0000000000000000 0.0000000000000000 0.0000000000000000 3.0626268068471680 3.1261281746231098 1.0635047965285755 1.0316164072498557 340.96998372472177 340.96580499770403 1.0312640569414417 
-30.878870470410643 -102.78735294188385 92.947932803105402 -30.878870470410646 -102.78735294188390 92.947932803105417 -54.396388203343399 9.1172113199245608e-06 1.6195294644959520e-05 -3.9785954957427370e-05 0.0000000000000000 1.4237934361076153e-08 -1.6865104442214027e-08 3.7188627006137462e-08 -0.00015472971140891625 2.8861628169361829e-11 -8.9432099039143878e-11 2.0313854460245703e-14 0.0000000000000000 -30.660097366607719 -102.72526557899965 95.328291536857705 204.58703120518373 0.0000000000000000 0.0000000000000000 0.0000000000000000 0.0000000000000000 3.0670541500312059 3.1350838892345885 1.0680331937499228 1.0330342612782186 344.11423524645875 344.10062223726368 1.0334561140806418 
-18.957184055575276 -111.02322748231215 90.964060384172299 -18.957184055575276 -111.02322748231209 90.964060384172313 -74.255605015411774 1.5356848049107558e-05 1.6523681084230762e-06 -3.4233571429121817e-05 0.0000000000000000 1.8240332855246070e-11 4.6556092314631314e-12 8.2995799566276673e-08 -0.00015372020350237810 -5.5441666392476770e-11 -2.0750743382047478e-12 2.5471627659910643e-11 0.0000000000000000 -18.804221549666405 -110.90595113131390 93.354036648627854 267.24800799435923 0.0000000000000000 0.0000000000000000 0.0000000000000000 0.0000000000000000 3.0623748070826058 3.1255908134539019 1.0632191894181835 1.0314224940848655 371.37691745547693 371.45291145684382 1.0311262249267334 
-34.033935970898462 -104.79178049168739 82.387723397818405 -34.033935970898476 -104.79178049168739 82.387723397818405 -79.474216553055228 1.5005224264916202e-05 -1.5151499448001874e-06 -2.8396934967445015e-05 0.0000000000000000 1.2163336557631810e-08 -7.8946966238528149e-10 5.4780056367263642e-08 -0.00015012859652999442 2.1445412713015702e-11 -3.6185612348987826e-13 7.6479006636688726e-12 0.0000000000000000 -33.815892125380543 -104.71065599625929 85.007910193808286 270.69679205096202 0.0000000000000000 0.0000000000000000 0.0000000000000000 0.0000000000000000 3.0598682317941734 3.1206001911384367 1.0607355466326822 1.0307280086689226 367.13366263594418 367.12063332508313 1.0299179399765388 
-19.074756454706844 -100.45531076377209 93.052903792726056 -19.074756454706851 -100.45531076377209 93.052903792726056 -65.768139114959297 5.3291861692862216e-06 -8.3496212788920089e-07 -9.7412157710743853e-06 0.0000000000000000 1.8315411687286346e-11 2.9987123895125478e-12 8.1439494259427647e-08 -0.00014233097681879209 -1.9640665052736640e-11 -1.9292740068220904e-11 -7.1910678421086832e-12 0.0000000000000000 -18.921183722278450 -100.37968114352928 95.398064000337470 185.31956687594098 0.0000000000000000 0.0000000000000000 0.0000000000000000 0.0000000000000000 3.0635468808457835 3.1279438325456663 1.0644000934372451 1.0315566125547184 358.44695971850138 358.47481067714875 1.0316993281391009 
-31.335676055351225 -118.11085938987067 172.59614454390203 -31.335676055351207 -118.11085938987070 172.59614454390206 -72.208155775425539 1.5735566417038893e-05 1.5604209842844105e-05 8.0022031703830534e-06 0.0000000000000000 -5.9650042325571321e-09 -7.8634690737908088e-10 2.0008143837317852e-08 -0.00010865526956897461 -6.4031452124589692e-12 -8.0421125363097653e-12 5.5268968820243487e-12 0.0000000000000000 -31.124431206993112 -117.97934695114738 173.21200361760444 258.17126679857051 0.0000000000000000 0.0000000000000000 0.0000000000000000 0.0000000000000000 3.0633502679634059 3.1275893207503027 1.0642423728783639 1.0318476685629514 365.01310844460306 365.01013912414533 1.0316214378934843 
-30.857807482196296 -133.33144980927824 163.99547042685813 -30.857807482196311 -133.33144980927821 163.99547042685816 -59.811754391147232 1.3775611675919057e-05 1.4886279451648747e-07 5.9581628547912034e-07 0.0000000000000000 -7.5374729358571713e-09 4.0675421529977067e-09 2.5983020722462530e-08 -0.00010089076674673519 -2.3123664375858714e-12 5.0685179940985219e-12 6.0365619068798780e-13 0.0000000000000000 -30.642131568542830 -133.13454878399213 164.80820313575899 262.24283076768535 0.0000000000000000 0.0000000000000000 0.0000000000000000 0.0000000000000000 3.0650207534328651 3.1310445832926770 1.0660282627011604 1.0326526863467294 350.56942909427875 350.57789996988555 1.0324860385714318 
-42.965445286938170 -120.22438428977925 162.90108842976704 -42.965445286938149 -120.22438428977922 162.90108842976713 -51.735335301673743 2.3232739078704457e-05 1.3846283531469964e-05 7.0462317961208192e-06 0.0000000000000000 -1.0831264811712639e-08 5.1441437087168542e-10 1.6017461432223676e-08 -0.00010803327991612065 -6.3017405292544444e-12 7.7103963839992667e-13 2.8616913953725568e-11 0.0000000000000000 -42.676694985445003 -120.10595080876966 163.70375490782192 268.28772502602959 0.0000000000000000 0.0000000000000000 0.0000000000000000 0.0000000000000000 3.0712726697231911 3.1438162860923460 1.0725500877541672 1.0346022061889191 349.29041317123585 349.28995859426385 1.0356399391099262 
-23.926075469735867 -114.36441096092167 160.92377836874621 -23.926075469735874 -114.36441096092173 160.92377836874618 -72.337020886512335 7.5212379363681769e-06 5.7458759020880918e-06 8.2641520851744330e-06 0.0000000000000000 2.1317982101809463e-11 5.1681436907813341e-12 3.0871727396686304e-08 -0.00010221406394275840 -7.2329502844278732e-13 6.5849284005434411e-13 1.9723218700696539e-12 0.0000000000000000 -23.747323328369049 -114.23396745764113 161.81277151251504 321.01516800445251 0.0000000000000000 0.0000000000000000 0.0000000000000000 0.0000000000000000 3.0621587386579949 3.1251865680417681 1.0630311236045735 1.0314848628682756 364.23915824351258 364.23626821903366 1.0310347805919831 
-6.5520250002064637 -105.08141322849784 107.29183499757376 -6.5520250002064664 -105.08141322849787 107.29183499757374 -40.749298470280024 7.6639320485640780e-07 -2.8888367400689407e-07 -1.9604314551035898e-05 -32.604432182513150 1.0563321051204611e-11 3.7246872253149377e-12 7.0830661336174217e-08 -0.00011338978212089582 7.7919746654923126e-13 1.1783672239250578e-12 -2.4040629655634116e-11 -0.00010929272993499009 -6.4634479885999987 -104.98755276399999 109.33149947120000 327.67017865987640 0.0000000000000000 0.0000000000000000 0.0000000000000000 0.0000000000000000 3.0627397298648580 3.1263969938214138 1.0636611020320716 1.0316052072332154 301.83025647663828 301.83437903308192 1.0313397926007519 
-11.923293506359741 -97.179601030738340 99.224944017911128 -11.923293506359741 -97.179601030738340 99.224944017911142 -59.588162086647230 -1.8339023948309638e-06 -7.6883178253886313e-07 -2.1587036235920865e-05 -56.314290965411502 1.3888029615216627e-11 2.4799606812564430e-12 7.6840964702284951e-08 -0.00012984567010146440 -2.7188574846567792e-12 1.7301341459325288e-12 -1.2549123275254552e-11 -0.00012977317598643091 -11.806838433999999 -97.116880539599975 101.43768333439998 212.90238721710071 0.0000000000000000 0.0000000000000000 0.0000000000000000 0.0000000000000000 3.0623263922934711 3.1255297934318156 1.0632069886467408 1.0313213577172899 338.96001205755749 338.98971103324214 1.0311194309580627 
-15.987152028162111 -110.47521951737224 100.92107784976042 -15.987152028162107 -110.47521951737230 100.92107784976042 -52.035840391568698 9.2661287804076879e-06 -8.6473498415533474e-07 -4.0526890916615287e-05 0.0000000000000000 1.6403815805698940e-11 4.5612402743699939e-12 7.5577246683167232e-08 -0.00012651694895498376 6.7428113345216049e-12 -4.3499288293511598e-12 -2.9975888512568574e-11 0.0000000000000000 -15.849604639409371 -110.36010279166017 103.09742667861765 236.22178992679409 0.0000000000000000 0.0000000000000000 0.0000000000000000 0.0000000000000000 3.0622550571774045 3.1254158944755512 1.0631645959487057 1.0316009729966735 328.39679725171322 328.42726112989203 1.0310989412334295 
-23.928342562465421 -99.606497020118312 100.08761622041668 -23.928342562465431 -99.606497020118283 100.08761622041671 -52.223021901644309 1.0597521659463153e-05 1.7920437261512955e-05 -2.6105981612600880e-05 0.0000000000000000 2.1319286613863394e-11 2.8682056729678603e-12 7.6198229947976870e-08 -0.00012772183771460276 -3.1179207453365481e-12 6.7070801947604900e-12 -2.5293408872695331e-11 0.0000000000000000 -23.749578654390465 -99.534212460059550 102.28184693721489 211.57004919854941 0.0000000000000000 0.0000000000000000 0.0000000000000000 0.0000000000000000 3.0641873417490171 3.1293606316187805 1.0651773372885363 1.0322104936075960 333.09534709440601 333.08400202661772 1.0320739579639662 
-54.479426303407372 -108.41694933653348 111.90587874632843 -54.479426303407379 -108.41694933653345 111.90587874632841 -26.850075565803444 7.2230613141707597e-06 2.5167925274585979e-05 -1.7684652535313448e-05 0.0000000000000000 -1.0126745556554317e-08 -1.7531450902792337e-08 -1.8110795849571574e-08 -0.00012626556635761272 1.9605100954359915e-11 -1.3476588843553854e-11 3.4591729324905685e-11 0.0000000000000000 -54.087034329299712 -108.37170302860723 113.84396407125838 191.01171882188567 0.0000000000000000 0.0000000000000000 0.0000000000000000 0.0000000000000000 3.0765574500447088 3.1546115138913176 1.0780627975855668 1.0375223559182432 325.47724557540738 325.47687827176645 1.0382982488007431 
-42.008614368848235 -107.79851352606202 108.96682133373733 -42.008614368848235 -107.79851352606195 108.96682133373727 -33.861992393993418 -6.1110593230772009e-06 1.7409851578297975e-05 2.3646108065024280e-06 0.0000000000000000 -1.1665050615200618e-08 -4.2489216170054623e-09 -7.4680974881988813e-09 -0.00011236827038128920 -1.6112040149581139e-11 2.2627890180452311e-11 1.4947727057766695e-11 0.0000000000000000 -41.690910404717421 -107.74885629568415 110.97670241767709 270.34727434602189 0.0000000000000000 0.0000000000000000 0.0000000000000000 0.0000000000000000 3.0725780004148029 3.1463902064237605 1.0738180629175711 1.0360675175587604 333.23878345329484 333.23822546424094 1.0362520325791851 