# For a description of the Tecplot format see the Tecplot User's guide.
#
Variables=x,y,z,s_u,s_v,s_w,s_p,mono_f_vel_u,mono_f_vel_v,mono_f_vel_w,const,u_nu,v_nu,w_nu,p_nu,x_nu,y_nu,z_nu,const,u_ref,v_ref,w_ref,vol_ref,x_ref,y_ref,z_ref,const,I1,I2,I3,J,p1,p2,p3
Zone f=fepoint, n=1339, e=6475, et=brick, c=black
-60.1789 -70.2954 173.834 -60.178855676711649 -70.295366918207023 173.83420426224396 -203.93953430711272 9.7321982084396919e-07 5.9232357253710252e-07 1.3588270095965685e-06 -207.66511008169280 5.6655172220310135e-10 -1.6850520978550776e-11 1.1334634031356927e-06 5.9123302994890696e-05 4.1925921436250071e-12 -1.2188775551751466e-11 2.1688723590163357e-11 6.5184010596784793e-05 -58.668039002000000 -70.473359259200009 176.35421013599998 215.13583165143561 0.0000000000000000 0.0000000000000000 0.0000000000000000 0.0000000000000000 3.2833230052661406 3.5844020126362421 1.3013974032962730 1.1393479108483766 1375.4028970412071 1375.4029146721130 1.1407952366005465 
-66.611413465863535 -76.334695942951441 182.24779486726899 -66.611413465863521 -76.334695942951413 182.24779486726899 -215.92093361140067 -1.5317507284246388e-05 -1.1832356380118126e-05 1.2210534365553700e-05 -217.14469037635629 6.1810048745947189e-10 -7.5770500984617684e-12 7.9914145345583165e-07 5.3604005107716378e-05 1.4160255453089510e-11 -1.4515888833676941e-12 -2.9707653688172858e-12 6.0884701406518324e-05 -64.963123215600007 -76.414687385200040 184.02450960799996 253.42820447565578 0.0000000000000000 0.0000000000000000 0.0000000000000000 0.0000000000000000 3.2868554135596848 3.5921239164120369 1.3056095557085423 1.1393479108483746 1406.9219128392508 1406.9219044900565 1.1426523567345215 
-71.414532849489319 -71.424476082736533 174.80218149683057 -71.414532849489319 -71.424476082736533 174.80218149683057 -208.20350748579926 -7.9290435550496153e-06 -1.5338185398272347e-06 -6.7018488089973031e-07 -215.74747035947397 6.5660124559663302e-10 -1.5110579454358231e-11 1.0949999342813044e-06 6.5995655734818787e-05 1.5839687827304946e-11 -7.1438711161782086e-12 2.0577112719425505e-11 7.1418779356808472e-05 -69.663592608799988 -71.584146237200002 177.23667228800005 218.29881668600640 0.0000000000000000 0.0000000000000000 0.0000000000000000 0.0000000000000000 3.2886633743931664 3.5958693886384263 1.3075501260594591 1.1393479108483755 1399.6443712327271 1399.6444181226659 1.1435079643195996 
-58.642998342066157 -87.833373263753003 168.69699029508934 -58.642998342066171 -87.833373263752961 168.69699029508948 -183.40641089575317 -9.2634817051573189e-06 1.8356184886518186e-05 3.7314843536088014e-05 0.0000000000000000 5.5424423384131671e-10 1.0094369784496848e-11 1.3375954424077465e-06 3.4445365508844165e-05 -2.0442817898637216e-12 -5.5004521174892745e-11 -1.2444440435601308e-11 0.0000000000000000 -57.165005282198301 -87.726774323660578 171.67083873969227 259.76550921814646 0.0000000000000000 0.0000000000000000 0.0000000000000000 0.0000000000000000 3.2672090085266241 3.5491475847247540 1.2821473258175968 1.1341602480889394 1286.0294913523537 1286.0295015754243 1.1323095154280438 
-91.069338153743189 -83.412787963548610 108.85213127593984 -91.069338153743203 -83.412787963548624 108.85213127593987 -146.20411959186271 7.8224428055892021e-06 3.0414777714022865e-05 -1.5286679632790352e-05 0.0000000000000000 8.1411613561677133e-10 3.3077984795681914e-12 3.7155873791050453e-06 7.8796619793309390e-05 3.9502213882837528e-11 1.6538348893702810e-12 1.4727018501143569e-11 0.0000000000000000 -88.898344731952406 -83.377922378373768 117.11292023788836 283.91631954144174 0.0000000000000000 0.0000000000000000 0.0000000000000000 0.0000000000000000 3.2713491452434718 3.5569540945611497 1.2858013512930240 1.1354182514805704 1222.4848163035165 1222.4030632168030 1.1339291647398395 
-99.956621005659159 -66.664794569492358 99.097607794834872 -99.956621005659159 -66.664794569492372 99.097607794834872 -195.46022043873384 4.7727223734974877e-06 1.6317124577591715e-05 -7.1740082083221121e-05 -205.35570648413042 8.8534027331554920e-10 -2.2435386881625163e-11 4.1031925697154747e-06 -6.4570089443868829e-07 -6.4467881978185462e-12 1.7991174709190119e-11 -1.4273585753035052e-10 1.3947134305514432e-05 -97.595692787999965 -66.901700632800015 108.22015140479995 322.25788568967050 0.0000000000000000 0.0000000000000000 0.0000000000000000 0.0000000000000000 3.2849793582584299 3.5884360741718622 1.3037995909922435 1.1393479108483753 1364.4895742248375 1359.6553455505614 1.1418529000909088 
-81.631832365555326 -67.304931686729120 99.531240053517294 -81.631832365555297 -67.304931686729120 99.531240053517251 -193.33052993288857 -1.3068506837960704e-05 1.7314586079273336e-05 -3.0108538194037988e-05 0.0000000000000000 7.3847775117208414e-10 -2.1444401809844745e-11 4.0859617804755999e-06 2.1882310205936304e-05 -2.5947731600730223e-11 -3.3673494361400986e-11 -1.3121852587939593e-10 0.0000000000000000 -79.662532843379708 -67.531450170133141 108.61547480962874 295.38956150422752 0.0000000000000000 0.0000000000000000 0.0000000000000000 0.0000000000000000 3.2738906129961172 3.5636844635560396 1.2900505829533946 1.1360399497587552 1324.0736655992412 1330.6602604019199 1.1357917200610228 
-96.770626536263180 -81.848993254151722 99.543123272732061 -96.770626536263137 -81.848993254151750 99.543123272732061 -178.91549554500489 -2.0111097388814306e-05 2.5438064476858015e-05 -5.3362288930627194e-05 0.0000000000000000 8.5981047281968870e-10 8.9550589166265137e-13 4.0854895964059770e-06 -3.6404874581275367e-05 -1.7295702406988311e-11 -1.4624363375533282e-10 -2.7260291245046296e-10 0.0000000000000000 -94.477787882002133 -81.839503548705352 108.62630821647583 293.80807890400462 0.0000000000000000 0.0000000000000000 0.0000000000000000 0.0000000000000000 3.2750105981794624 3.5654896493553951 1.2907206604635677 1.1361968810949843 1287.4006096272021 1285.1366474968809 1.1360874032907302 
-48.656587767643579 -126.67205010891222 132.55253337976617 -48.656587767643558 -126.67205010891215 132.55253337976626 -55.130320500211013 1.0312962954015908e-05 5.3534731216027900e-06 1.5487258185872915e-05 0.0000000000000000 1.2994360194330946e-07 -3.1136954367947977e-07 2.9618152146234689e-06 0.00012160796103101249 2.0524157455038475e-11 -3.2002650097868059e-11 6.6645476392571708e-11 0.0000000000000000 -47.292355390977058 -125.96433165720771 138.67232254046354 244.31333887135355 0.0000000000000000 0.0000000000000000 0.0000000000000000 0.0000000000000000 3.2960983197430944 3.6133338421685406 1.3176718746217373 1.1484933645419639 1162.0161684667812 1162.0169474732836 1.1478981475854255 
-35.217513051938035 -141.42298398110088 133.09717120610287 -35.217513051938028 -141.42298398110094 133.09717120610279 -53.319795960840956 1.6505813668855687e-05 4.3868238162104039e-06 8.4161904660634063e-06 0.0000000000000000 8.1322257100267602e-08 -1.5722167979882394e-07 2.7714189020150814e-06 3.2065055770698646e-05 4.0014706962587153e-11 -1.1561042840037364e-10 1.1681243963766043e-10 0.0000000000000000 -34.196989160350306 -140.43319657724166 139.21506628885933 210.16870282748488 0.0000000000000000 0.0000000000000000 0.0000000000000000 0.0000000000000000 3.2935044524157173 3.6076336939052522 1.3145384534148616 1.1466257910870410 1150.6871363085775 1150.6872428356573 1.1465359751614903 
-31.853694672438117 -128.40611355381535 136.95014809490922 -31.853694672438117 -128.40611355381537 136.95014809490928 -70.859858029467773 1.2958657351963166e-05 3.8493569618058671e-06 2.5936888186428844e-05 0.0000000000000000 3.3954664080404479e-10 7.2418515628669411e-11 2.5990861765023965e-06 6.2237113936838040e-05 1.8212862058438884e-11 -3.9359709068356946e-11 5.1362341661812266e-11 0.0000000000000000 -30.948229910445860 -127.64113600963313 142.72864290474456 229.21992526850030 0.0000000000000000 0.0000000000000000 0.0000000000000000 0.0000000000000000 3.2865251650287242 3.5920555279444639 1.3058858075295554 1.1438097857828886 1158.8415176249912 1158.8415205253718 1.1427524462586007 
-49.793070305653622 -131.68972745744264 141.51396026161430 -49.793070305653607 -131.68972745744261 141.51396026161422 -51.673131706008093 1.7542247131767730e-05 3.7683168317688609e-05 -1.7909343195329724e-05 0.0000000000000000 1.6485375802019194e-07 -2.8316377896240878e-07 2.6337812880792645e-06 6.2478787553244279e-05 1.8627262203985286e-11 -1.4535930484906922e-11 3.9692852501892340e-11 0.0000000000000000 -48.406431667502837 -130.90513559487593 146.85896726379221 225.63426853136377 0.0000000000000000 0.0000000000000000 0.0000000000000000 0.0000000000000000 3.3003264212483447 3.6222530101910633 1.3223699233514390 1.1493582605032759 1160.1797950552800 1160.1799027065865 1.1499434465958460 
-54.386988788581434 -84.859725557906629 65.396867101845871 -54.386988788581441 -84.859725557906600 65.396867101845842 -172.42393443277967 -7.9031521051607849e-06 0.00013182073672549709 -0.00017385232349562246 0.0000000000000000 3.5409506225680076e-08 -7.6608066374971967e-07 3.9985533378840819e-06 -0.0011282482190566048 9.8621757585673837e-11 -2.7073620149622450e-09 -1.9105727146605844e-09 0.0000000000000000 -53.009977022357148 -84.940192361847963 77.707205907375524 356.07450292316213 0.0000000000000000 0.0000000000000000 0.0000000000000000 0.0000000000000000 3.2846653403714661 3.5868147980325107 1.3024288807927382 1.1400674900206673 1258.5492004476766 1257.9053294952612 1.1411708065182786 
-41.402735274150480 -85.679395595432311 54.301236338453698 -41.402735274150480 -85.679395595432240 54.301236338453698 -307.96694130635808 1.2756479693117782e-05 3.4240522662288616e-05 -0.00011464691272820642 0.0000000000000000 -3.0438688273497092e-07 -2.1038140265555137e-07 5.9502309014535916e-06 -0.00091827954619491756 -6.4971049594784554e-10 -3.4561452981918036e-10 7.8448309433821911e-10 0.0000000000000000 -40.313282635619565 -85.652866469445740 67.489144002613742 334.72004880612383 0.0000000000000000 0.0000000000000000 0.0000000000000000 0.0000000000000000 3.2682222891532287 3.5527460150760861 1.2848008570985028 1.1356600541868391 1509.6963110804256 1509.7597817894052 1.1334693007112415 
-44.027166753528874 -94.195528406768290 71.573301564979730 -44.027166753528867 -94.195528406768275 71.573301564979772 -134.86503225128570 0.00012602372815818895 1.5506084001358709e-05 -6.6220712113557208e-05 0.0000000000000000 -3.2237523993708705e-07 4.8362114241375627e-07 3.7250910602175323e-06 -0.00069514314823100848 -1.4845935266329625e-09 5.4403756280380686e-10 -2.1011518714326117e-09 0.0000000000000000 -42.930125987095458 -94.071309017270835 83.274511392489799 283.94561953274422 0.0000000000000000 0.0000000000000000 0.0000000000000000 0.0000000000000000 3.2890048802537430 3.5967113021489885 1.3080410008319523 1.1405597057714540 1226.5210811664595 1226.6641183097888 1.1436827318753944 
-46.157494088565805 -99.261765931617148 54.996986240069113 -46.157494088565798 -99.261765931617120 54.996986240069141 -220.86115874833339 0.00013309571083838879 5.4868631234112666e-05 -0.00018313554079076987 0.0000000000000000 4.5418049876566613e-10 2.7649882383684599e-11 5.8555723754238898e-06 -0.00094974894582306921 -7.2166877281633766e-10 1.3113554742298869e-09 9.9934904765106181e-10 0.0000000000000000 -44.946335306532468 -98.969717126470769 68.015559797458934 339.42980011114588 0.0000000000000000 0.0000000000000000 0.0000000000000000 0.0000000000000000 3.2829710036576087 3.5851697897183041 1.3025815441468118 1.1395546492531214 1354.7032002940107 1354.7493741967526 1.1412836533256057 
-36.601038763970095 -101.12527410074983 62.961768891300274 -36.601038763970102 -101.12527410074978 62.961768891300309 -218.18050256811088 8.0852515249829908e-05 3.3216081320902142e-05 -7.6082274517989823e-05 0.0000000000000000 -2.1060449664654877e-07 4.1743334526890682e-07 5.1750517437392164e-06 -0.00053847855749855546 -5.2661361171033050e-10 7.0550591911364826e-10 -4.1487956995924069e-10 0.0000000000000000 -35.672109309640206 -100.83293553867907 75.360366609178811 338.44965823895870 0.0000000000000000 0.0000000000000000 0.0000000000000000 0.0000000000000000 3.2633335032084441 3.5421316231289799 1.2790573559635696 1.1353697399842515 1338.5551857482496 1338.5199260235456 1.1309470636652739 
-50.274948117148263 -112.49892655139931 52.109474786521730 -50.274948117148263 -112.49892655139932 52.109474786521737 -187.05054129044973 0.00015701265041596048 1.5038845308543959e-05 -0.00010107539736937890 -126.26192004691235 4.8718387657409323e-10 4.7991166596261785e-11 5.9703103651997944e-06 -0.00027004734012137815 5.8132667125335973e-10 2.3881287769060177e-10 -5.4042891982754712e-10 0.00011659925459165677 -48.975793059600008 -111.99207679200002 65.383142959360015 326.57209562220959 0.0000000000000000 0.0000000000000000 0.0000000000000000 0.0000000000000000 3.2800900640489536 3.5768806969966582 1.2970624127216988 1.1394249321243335 1302.9406971350184 1302.9378439900304 1.1388623461851495 
-26.020333796692487 -110.96381059370900 54.398181977650822 -26.020333796692505 -110.96381059370890 54.398181977650843 -297.84926123743782 2.8531707521903527e-05 1.5555324035520431e-05 -8.9426969904271962e-05 0.0000000000000000 2.9279603741549915e-10 4.5636383561031835e-11 5.8793664230449849e-06 -0.00031208577370853851 -6.3875446129384837e-11 1.6445412850043426e-10 -1.4762105433947645e-10 0.0000000000000000 -25.239536857883341 -110.48187134057846 67.469656361758609 349.35568362690350 0.0000000000000000 0.0000000000000000 0.0000000000000000 0.0000000000000000 3.2730258547267246 3.5626905377212839 1.2899536477370628 1.1366889480274842 1511.8332325578176 1511.8340932615954 1.1357549195993406 
-45.268001720595095 -111.76351775942049 64.251401507963479 -45.268001720595073 -111.76351775942052 64.251401507963479 -149.48687738455018 7.8382441080486516e-05 -7.4527007237334633e-05 -4.2638532492697086e-05 0.0000000000000000 4.4705664170585635e-10 4.6853632085230850e-11 5.4878394522006593e-06 -0.00012026505382787869 3.9889518369314225e-10 -3.4616709131621896e-10 -1.8153024365182120e-10 0.0000000000000000 -44.075852747763513 -111.26860156453857 76.452402029906395 268.59635586333832 0.0000000000000000 0.0000000000000000 0.0000000000000000 0.0000000000000000 3.2882390342983245 3.5963421551764578 1.3084957187712825 1.1401082234779201 1282.4845154538239 1282.4719948248919 1.1439063315200457 
-59.859721130061622 -106.88954559677451 95.886767379285516 -59.859721130061637 -106.88954559677451 95.886767379285587 -41.108930385697342 2.1255827623295602e-05 4.5883035647984321e-05 8.4330832882328546e-06 0.0000000000000000 -6.0945401000786635e-08 2.1013408980442827e-07 3.5537032740134456e-06 0.00027227171711714083 -5.4965613444009847e-11 3.9326401253026218e-11 -8.5463332585829452e-11 0.0000000000000000 -58.254647241440821 -106.62760994408018 105.33920711112118 241.62621693813244 0.0000000000000000 0.0000000000000000 0.0000000000000000 0.0000000000000000 3.3061539898576813 3.6350011748177913 1.3293420141581269 1.1518077664127742 1154.7357091445735 1154.6995506591384 1.1529669072011191 
-66.157197231649022 -90.019627752055115 86.295823355461351 -66.157197231648993 -90.019627752055143 86.295823355461366 -90.151145470054217 -2.9418051051846038e-05 -2.2990949473524493e-06 5.9381289728929947e-05 0.0000000000000000 -2.7170106312102954e-07 3.1790014385559232e-07 3.4905555929690556e-06 -1.5009953763007980e-06 -1.0920323967848606e-09 2.9144452096995204e-10 -3.9118258259307127e-10 0.0000000000000000 -64.370648572599308 -90.090304358695661 96.688480747766732 239.98138923263960 0.0000000000000000 0.0000000000000000 0.0000000000000000 0.0000000000000000 3.2973893045921998 3.6151219292364787 1.3180962916833048 1.1435193380701743 1189.7388504719459 1188.5963168585474 1.1480487749052566 
-77.980846032831153 -99.851063774217550 91.414059603575424 -77.980846032831153 -99.851063774217479 91.414059603575424 -77.607517763762274 -4.5485696758852866e-05 5.9994366709979923e-05 -1.5689699884961233e-05 0.0000000000000000 -2.9233274610821511e-07 1.7832177416875943e-07 3.6634395041178846e-06 1.2150015512057668e-06 -2.2372787924081888e-10 2.6548794224108349e-10 -3.3339889349884358e-10 0.0000000000000000 -75.913673002404863 -99.702254402691466 101.32606574872912 288.13617662859207 0.0000000000000000 0.0000000000000000 0.0000000000000000 0.0000000000000000 3.3008893380740587 3.6232772542310268 1.3228276498079332 1.1467739834922477 1186.3213507167061 1186.3125812003937 1.1501639945205990 
-56.703852225274709 -93.606014457932645 93.637904038968657 -56.703852225274673 -93.606014457932645 93.637904038968657 -84.191153723865085 4.5087414297226942e-07 3.2853585674814234e-05 2.8718641195572276e-05 0.0000000000000000 -1.8265735723322794e-08 2.0836610544833680e-07 3.4459220119951873e-06 0.00020251541710570155 9.8463034986085286e-11 -2.6398515296415643e-10 3.5915618427927385e-10 0.0000000000000000 -55.164710769962618 -93.586508083202432 103.32606452766413 222.68531933077850 0.0000000000000000 0.0000000000000000 0.0000000000000000 0.0000000000000000 3.2960039653152950 3.6113889942761546 1.3157308327457153 1.1462347553671965 1213.2717310013247 1213.1666687000115 1.1470532753972231 
-46.991766273909967 -177.45673296836614 151.12272377956322 -46.991766273909960 -177.45673296836603 151.12272377956330 -47.554031899492664 -3.1542477676095121e-05 -2.4805807757295032e-05 5.8516077099678354e-05 0.0000000000000000 4.6087048066745245e-10 1.4779466539494024e-10 2.0359255081814354e-06 -2.5707363134392696e-05 1.2740611590832431e-10 3.0632902904583628e-11 -1.0523254059059436e-10 0.0000000000000000 -45.762777822239421 -175.89580528354742 155.64915507299250 248.91339099022119 0.0000000000000000 0.0000000000000000 0.0000000000000000 0.0000000000000000 3.2967015344771839 3.6124239736869019 1.3160635680218322 1.1449114655173918 1118.1526188473943 1118.1537016645625 1.1471859268005093 
-52.788366086438124 -187.28319423762605 164.83903814502193 -52.788366086438138 -187.28319423762605 164.83903814502193 -59.752764098647674 5.6056808212100144e-06 -7.1507149657019734e-06 -6.7092861313556692e-06 -68.778298924040982 5.0732509859763297e-10 1.6288215221038629e-10 1.4908948173797396e-06 9.0289018658478821e-06 -1.9201990099509538e-11 -4.9786450114512484e-12 -2.1276502143274793e-12 7.1108079352375125e-06 -51.435495451599998 -185.56281141599996 168.15371392000000 294.81703600272857 0.0000000000000000 0.0000000000000000 0.0000000000000000 0.0000000000000000 3.2790592058400172 3.5753249427403890 1.2965689574265864 1.1396865570195851 1104.2559080517060 1104.2550024881020 1.1386750127845973 
-43.839966372841189 -172.65073801242579 162.77204466855147 -43.839966372841211 -172.65073801242579 162.77204466855153 -56.225396681997644 7.1660494084254572e-06 -6.2434820928943832e-06 1.0092340680684925e-05 0.0000000000000000 2.4805512033286255e-08 -2.3071020813272664e-08 1.5883886924504534e-06 -2.2027326126843533e-06 2.3288369604313476e-11 2.0498560434178201e-11 4.4693298318897597e-11 0.0000000000000000 -42.672974891599750 -171.18173466392949 166.26923354793541 271.88244999766295 0.0000000000000000 0.0000000000000000 0.0000000000000000 0.0000000000000000 3.2824912478159263 3.5826550523068188 1.3004806339208210 1.1410585839025231 1103.4368990301116 1103.4366822350919 1.1403877274013512 
-60.909159298599754 -179.61330604555982 153.42782705498661 -60.909159298599732 -179.61330604555982 153.42782705498664 -69.292284088202294 -1.2477487866877537e-05 -6.2158666488768114e-06 -3.3415687257145424e-06 0.0000000000000000 5.7240748252418427e-10 1.5110490636516261e-10 1.9443300551813536e-06 1.3129331236529629e-05 -1.1995782337160731e-11 -1.1910345028944700e-11 1.4973549922290671e-11 0.0000000000000000 -59.382734921100123 -178.01738339707751 157.75061606229067 243.94852352315442 0.0000000000000000 0.0000000000000000 0.0000000000000000 0.0000000000000000 3.2818340277974589 3.5807380414477352 1.2991944352589928 1.1408093779060735 1123.4784940521977 1123.4792317806289 1.1398251099853700 
-31.550074586041802 -103.03333307350186 84.856344807329904 -31.550074586041784 -103.03333307350186 84.856344807329876 -79.264680341847210 2.8526676603017314e-05 5.6316284057767164e-05 -0.00011281925323835196 0.0000000000000000 1.9632657736076092e-07 -7.2337965774337775e-08 4.2048006489296438e-06 -0.00021028561797275234 3.9761129904043785e-10 -1.4074880950668926e-09 -1.2134454651630155e-10 0.0000000000000000 -30.660097366607719 -102.72526557899965 95.328291536857705 204.58703120518373 0.0000000000000000 0.0000000000000000 0.0000000000000000 0.0000000000000000 3.2937918759403377 3.6054078313651314 1.3119060618436291 1.1438875055908717 1165.0805067781109 1165.0789358579207 1.1453745299548401 
-19.444482512274732 -111.39488548718059 82.790890710014253 -19.444482512274718 -111.39488548718056 82.790890710014253 -148.05655194319979 6.0049933713196340e-05 6.5196380944076098e-07 -0.00010650070879080926 0.0000000000000000 2.4009536025992873e-10 4.6286086075042470e-11 4.7511553518120317e-06 -0.00022548363434287679 -8.2676564895849460e-10 -6.3281737715637704e-12 4.2191334776986335e-10 0.0000000000000000 -18.804221549666405 -110.90595113131390 93.354036648627854 267.24800799435923 0.0000000000000000 0.0000000000000000 0.0000000000000000 0.0000000000000000 3.2776009975336389 3.5710069862596430 1.2936600111273939 1.1388542231501488 1267.4241522173422 1267.4238571981698 1.1374005096244315 
-34.712878973321949 -105.08848004916467 73.487607059870868 -34.712878973321949 -105.08848004916474 73.487607059870911 -149.25976805088644 6.6201619566254039e-05 -1.7137926652183936e-05 -8.1906475997934033e-05 0.0000000000000000 1.2342798201823752e-07 2.4360444963346786e-07 4.7052796982865863e-06 -0.00014019757495626128 4.2108829420135520e-10 2.3843367040081011e-11 3.6928602650692604e-11 0.0000000000000000 -33.815892125380543 -104.71065599625929 85.007910193808286 270.69679205096202 0.0000000000000000 0.0000000000000000 0.0000000000000000 0.0000000000000000 3.2708409650559385 3.5582924882898519 1.2877449522665383 1.1374469676107517 1234.5760226238938 1234.5686055037374 1.1347628377566423 
-19.563998933174449 -100.69498699456480 85.032994735487719 -19.563998933174449 -100.69498699456477 85.032994735487748 -116.63469530743708 2.4965100380530662e-05 -1.1285509550948898e-05 -2.4924275054621559e-05 0.0000000000000000 2.4105414886399501e-10 2.9857227801244335e-11 4.6620632367933013e-06 -0.00010550353187125820 -2.2510253600946832e-10 -2.4088536388097783e-10 -1.0989643829660872e-10 0.0000000000000000 -18.921183722278450 -100.37968114352928 95.398064000337470 185.31956687594098 0.0000000000000000 0.0000000000000000 0.0000000000000000 0.0000000000000000 3.2831913917811657 3.5828491273577967 1.2999251005580703 1.1397311268849235 1225.3710167588983 1225.3705570342058 1.1401573734109234 
-32.015150489271335 -118.54329320871882 170.44545691059594 -32.015150489271349 -118.54329320871878 170.44545691059596 -103.06139184114197 5.5228413455519584e-05 6.0308446688919373e-05 8.6845619745884128e-06 0.0000000000000000 4.6647559355833396e-08 -6.2918442602536672e-08 1.3314770990803378e-06 -8.9258081651124913e-05 -4.7317126943598134e-11 -1.7896911822519390e-10 1.0010460825421220e-10 0.0000000000000000 -31.124431206993112 -117.97934695114738 173.21200361760444 258.17126679857051 0.0000000000000000 0.0000000000000000 0.0000000000000000 0.0000000000000000 3.2843674884948091 3.5860041650322652 1.3019244976435838 1.1418474266908261 1191.0284688382637 1191.0284672353116 1.1410189763574079 
-31.544427170293538 -133.96640053059784 161.18922714444091 -31.544427170293517 -133.96640053059775 161.18922714444091 -73.459685707930859 3.5687840790555755e-05 4.3820735556517620e-06 -4.8145058412209288e-06 0.0000000000000000 3.9736064499324837e-08 -1.6061535735635508e-08 1.7069706505433335e-06 -1.7533801721060836e-05 2.9243705158159984e-11 1.9633472126469161e-11 2.1524628757439768e-11 0.0000000000000000 -30.642131568542830 -133.13454878399213 164.80820313575899 262.24283076768535 0.0000000000000000 0.0000000000000000 0.0000000000000000 0.0000000000000000 3.2888417681846005 3.5963492495382674 1.3078494292214990 1.1438746267437601 1160.4494459229488 1160.4494609398130 1.1436101786972557 
-43.862657205153951 -120.65061676563148 160.05621563682288 -43.862657205153944 -120.65061676563151 160.05621563682283 -49.700366745605088 7.0263374623748989e-05 2.9273555048773703e-05 3.5182430772996145e-06 0.0000000000000000 6.0159383492237530e-08 -1.4525172306305050e-07 1.9212422445696227e-06 -6.6416751366302153e-05 -1.2254016552093608e-10 6.6150697398771851e-11 1.3768974653045522e-10 0.0000000000000000 -42.676694985445003 -120.10595080876966 163.70375490782192 268.28772502602959 0.0000000000000000 0.0000000000000000 0.0000000000000000 0.0000000000000000 3.3068554893597755 3.6358012971956737 1.3293986115906666 1.1504073666885355 1156.0177460060358 1156.0177524899764 1.1529913892473767 
-24.495532946273709 -114.77779670974988 157.88362608303254 -24.495532946273698 -114.77779670974994 157.88362608303248 -114.16321636576231 2.4854199821786003e-05 2.0050299897000397e-05 1.9028115950516154e-05 0.0000000000000000 2.8057781098489443e-10 5.1489701391460591e-11 1.7672746928099061e-06 3.5397430194115005e-06 -1.7699830574370100e-11 -2.8492694790602415e-11 6.8603230004238297e-11 0.0000000000000000 -23.747323328369049 -114.23396745764113 161.81277151251504 321.01516800445251 0.0000000000000000 0.0000000000000000 0.0000000000000000 0.0000000000000000 3.2786782407505219 3.5740394433251477 1.2956361140172341 1.1397366202156192 1205.4175043894495 1205.4175016089532 1.1382679959004034 
-6.8342081456669161 -105.37886444244116 100.31665115611548 -6.8342081456669170 -105.37886444244117 100.31665115611551 -44.325374694699818 3.7900096498677081e-06 -4.7873192532322879e-06 -5.9352109581537451e-05 -16.555383904140520 1.3903428408568175e-10 3.7043701439642973e-11 4.0547527326850749e-06 9.6640253431020428e-05 -3.2501095664027053e-11 1.0531580527936254e-10 -1.1897430789044562e-10 7.4877236100562354e-05 -6.4634479885999987 -104.98755276399999 109.33149947120000 327.67017865987640 0.0000000000000000 0.0000000000000000 0.0000000000000000 0.0000000000000000 3.2806800132118195 3.5788161939302658 1.2984427230567470 1.1400841802287800 1055.3880260833134 1055.3870912176803 1.1394936589332034 
-12.294288847332597 -97.378367213369472 91.657883981662820 -12.294288847332597 -97.378367213369486 91.657883981662835 -98.606189994996299 -5.6354278352805078e-07 -9.2120361442817027e-06 -7.0980486554548836e-05 -90.434051953142401 1.8279286417843821e-10 2.4755975047696666e-11 4.3988170155273565e-06 -1.8174722207003438e-06 -2.1496495064105379e-11 6.2043130635459941e-12 -5.0987812890234924e-11 -1.1122784690877215e-05 -11.806838433999999 -97.116880539599975 101.43768333439998 212.90238721710071 0.0000000000000000 0.0000000000000000 0.0000000000000000 0.0000000000000000 3.2799123514099167 3.5768383263579038 1.2972200338253865 1.1393479108483757 1171.9791088402910 1171.9728853499344 1.1389558130652560 
-16.425341961466291 -110.84003349939807 93.478464919687283 -16.425341961466298 -110.84003349939805 93.478464919687255 -81.983872123093306 2.5670690003356846e-05 -8.4698458153618292e-06 -0.00013454957260561326 0.0000000000000000 2.1589954823930666e-10 4.5436543416599313e-11 4.3264745066551313e-06 2.5867517514435007e-05 -1.7435885458883369e-11 -3.0737006050138712e-11 -1.6389274433639191e-10 0.0000000000000000 -15.849604639409371 -110.36010279166017 103.09742667861765 236.22178992679409 0.0000000000000000 0.0000000000000000 0.0000000000000000 0.0000000000000000 3.2780117430253166 3.5731538611879383 1.2954417662976885 1.1397263883790119 1143.7922130470467 1143.7919663231478 1.1381766381020348 
-24.497837524651668 -99.835572491392284 92.583851342347330 -24.497837524651676 -99.835572491392256 92.583851342347330 -73.931255515129905 3.4991981351840675e-05 5.2305793682273158e-05 -8.2064344179457089e-05 0.0000000000000000 2.8059490841947365e-10 2.8533397866681298e-11 4.3620228247220902e-06 5.6574605286303281e-05 2.1296927886270184e-10 8.0557337820147172e-11 -1.0225455895859912e-10 0.0000000000000000 -23.749578654390465 -99.534212460059550 102.28184693721489 211.57004919854941 0.0000000000000000 0.0000000000000000 0.0000000000000000 0.0000000000000000 3.2835342346624832 3.5851663003351839 1.3019534905859016 1.1415418789940104 1139.3649875941085 1139.3705823374557 1.1410308807516925 
-55.620095003037171 -108.69136544002500 105.25066455359699 -55.620095003037179 -108.69136544002502 105.25066455359701 -23.612275159682998 1.0690235238113947e-05 2.6871031804949073e-05 -2.1691756790928647e-05 0.0000000000000000 1.0836577962134876e-07 1.2794343791854754e-07 3.4455851179658477e-06 0.00049536962451035137 4.6619563862830026e-10 3.8319449563310493e-10 -4.2997753624452506e-10 0.0000000000000000 -54.087034329299712 -108.37170302860723 113.84396407125838 191.01171882188567 0.0000000000000000 0.0000000000000000 0.0000000000000000 0.0000000000000000 3.3096973689851485 3.6421883083051640 1.3329822916418772 1.1534531137525184 1129.5888319288072 1129.5816105068004 1.1545512889284419 
-42.933526975431910 -108.07166965318700 102.08531712681365 -42.933526975431938 -108.07166965318706 102.08531712681362 -32.602691183532933 -1.3156345140596595e-05 2.2149935759969462e-05 9.5319481278777421e-06 0.0000000000000000 7.8114115030626648e-08 1.1005506965993299e-07 3.5900880635498351e-06 0.00028482672382435371 3.2245396213315576e-11 2.6214418926851411e-11 5.8495533317713163e-11 0.0000000000000000 -41.690910404717421 -107.74885629568415 110.97670241767709 270.34727434602189 0.0000000000000000 0.0000000000000000 0.0000000000000000 0.0000000000000000 3.3044597126784945 3.6297280720798031 1.3256731436962574 1.1509802791034256 1141.0109750096310 1140.9934074171788 1.1513791223755345 