# For a description of the Tecplot format see the Tecplot User's guide.
#
Variables=x,y,z,s_u,s_v,s_w,s_p,mono_f_vel_u,mono_f_vel_v,mono_f_vel_w,const,u_nu,v_nu,w_nu,p_nu,x_nu,y_nu,z_nu,const,u_ref,v_ref,w_ref,vol_ref,x_ref,y_ref,z_ref,const,I1,I2,I3,J,p1,p2,p3
Zone f=fepoint, n=1339, e=6475, et=brick, c=black
-60.4749 -70.2607 173.296 -60.474922338163999 -70.260704629391526 173.29635076872998 -39.246589889327673 2.2543461259778331e-06 2.6007935018136956e-06 -2.0386447705564920e-06 -43.767670958867832 -6.1347676938439122e-10 1.8220980280148069e-11 -1.2567882947678302e-06 -0.0018945611285547462 2.8848343218477423e-12 -7.5813316311340516e-12 1.4764603460818972e-11 -0.0018917844722575290 -58.668039002000000 -70.473359259200009 176.35421013599998 215.13583165143561 0.0000000000000000 0.0000000000000000 0.0000000000000000 0.0000000000000000 3.3432079763290186 3.7119832450922106 1.3693155916620372 1.1693762917408068 1288.8392431135292 1288.8077261247672 1.1701792092114316 
-66.934420088485822 -76.319118382374853 181.86858454866137 -66.934420088485822 -76.319118382374867 181.86858454866143 -42.605783865112706 -2.1058360038186870e-05 -3.8732742119268899e-06 1.4188729615443419e-06 -44.349366407805256 -6.6930255782082781e-10 8.1816775576726286e-12 -8.8609090198588092e-07 -0.0018947287425733349 -1.5980618125123470e-11 4.8583753621997539e-12 -1.0095709834047135e-11 -0.0018938904432041137 -64.963123215600007 -76.414687385200040 184.02450960799996 253.42820447565578 0.0000000000000000 0.0000000000000000 0.0000000000000000 0.0000000000000000 3.3453773129485684 3.7168141489106223 1.3719973647221200 1.1693762917408073 1298.8735027545404 1298.8703635304487 1.1713291866521502 
-71.757655241597192 -71.393381862736106 174.28257978058275 -71.757655241597178 -71.393381862736092 174.28257978058272 -42.425725115771023 -5.3547295040030688e-06 6.1370003293455734e-07 -3.4996668599176157e-06 -48.651996127170996 -7.1097810971920694e-10 1.6342927011692158e-11 -1.2141398322285111e-06 -0.0018930288468845303 7.6802326131784684e-12 -5.2592983550678007e-12 1.0636055019987011e-11 -0.0018904184562395729 -69.663592608799988 -71.584146237200002 177.23667228800005 218.29881668600640 0.0000000000000000 0.0000000000000000 0.0000000000000000 0.0000000000000000 3.3465033366175980 3.7191331382683539 1.3731915551944363 1.1693762917408053 1302.9428390994051 1303.1422598020054 1.1718408269852889 
-58.932632735311387 -87.854132377478336 168.06227162567333 -58.932632735311415 -87.854132377478393 168.06227162567328 -22.714225416135953 -4.8422290394428669e-06 1.5110563767959162e-05 2.4638896047549829e-05 0.0000000000000000 -6.0014854197376621e-10 -1.0903722369448587e-11 -1.4831306494045293e-06 -0.0019154531307280203 -1.2363020075262421e-11 -3.7648040201640687e-11 -1.8477103316207672e-11 0.0000000000000000 -57.165005282198301 -87.726774323660578 171.67083873969227 259.76550921814646 0.0000000000000000 0.0000000000000000 0.0000000000000000 0.0000000000000000 3.3343710368492911 3.6922836665933434 1.3583669101711617 1.1667062051234660 1231.8643968326480 1231.9340683309322 1.1654888505663334 
-91.494776120627805 -83.419577699423243 107.08900276555117 -91.494776120627805 -83.419577699423215 107.08900276555111 21.901331344253865 2.0191178563908739e-05 2.1471816826524447e-05 -1.5250750259167633e-05 0.0000000000000000 -8.8153945254632059e-10 -3.5622615968122769e-12 -4.1198566300693082e-06 -0.0020905577824325439 1.0499862247320871e-10 2.6673214335217167e-11 -5.1100464583133148e-11 0.0000000000000000 -88.898344731952406 -83.377922378373768 117.11292023788836 283.91631954144174 0.0000000000000000 0.0000000000000000 0.0000000000000000 0.0000000000000000 3.3411457601520742 3.7068713815995591 1.3662200049447979 1.1693638956939749 1158.3675202419463 1158.3674753416051 1.1688556353769926 
-100.41927947841165 -66.618659402424512 97.150552035381153 -100.41927947841167 -66.618659402424527 97.150552035381139 -20.335023161503269 1.0411765926919779e-05 2.3593172083381405e-05 -8.1217903451370443e-05 -31.454007432174500 -9.5866664606703032e-10 2.4244606322554318e-11 -4.5496346565698795e-06 -0.0022493900840011784 7.9928214199620992e-12 3.9218156785775088e-11 -2.4863616127628885e-10 -0.0022392429198623827 -97.595692787999965 -66.901700632800015 108.22015140479995 322.25788568967050 0.0000000000000000 0.0000000000000000 0.0000000000000000 0.0000000000000000 3.3426481840435729 3.7109649644887024 1.3688633547983076 1.1693762917408081 1250.8822739300274 1250.8825657380819 1.1699846583418172 
-82.017745457917499 -67.260819400492579 97.592360684084056 -82.017745457917499 -67.260819400492593 97.592360684084085 -26.566797825556435 -8.4682754984987099e-06 1.9972255563955040e-05 -3.0851989077659333e-05 0.0000000000000000 -7.9964140864419154e-10 2.3188118092321020e-11 -4.5305291074271281e-06 -0.0022359436488793068 -3.6761392665796092e-11 -3.6402240155114710e-11 -2.4184710146597570e-10 0.0000000000000000 -79.662532843379708 -67.531450170133141 108.61547480962874 295.38956150422752 0.0000000000000000 0.0000000000000000 0.0000000000000000 0.0000000000000000 3.3387646783047717 3.7020536258712915 1.3637860341964336 1.1680193412860265 1250.1292357029267 1250.1293226420830 1.1678099458198512 
-97.219941861529634 -81.850841282606879 97.604467968351756 -97.219941861529620 -81.850841282606837 97.604467968351798 -3.0377281268940695 -1.2115522301777317e-05 3.1265743212247949e-05 -5.6641440065620014e-05 0.0000000000000000 -9.3102164866465397e-10 -9.7566399404058757e-13 -4.5300055298014286e-06 -0.0022916145944066554 -8.9032320992321054e-11 -1.1331459056704925e-10 -3.9398992701645192e-10 0.0000000000000000 -94.477787882002133 -81.839503548705352 108.62630821647583 293.80807890400462 0.0000000000000000 0.0000000000000000 0.0000000000000000 0.0000000000000000 3.3409891494853765 3.7065229129206760 1.3660291370464575 1.1686371583652346 1197.0383465029454 1197.0382034922293 1.1687715826680722 
-48.808819757888244 -126.86032812343583 131.15703456058270 -48.808819757888223 -126.86032812343589 131.15703456058279 28.926808505932915 1.8643850313925700e-05 -4.8163010935075620e-06 -4.3789005132915286e-06 0.0000000000000000 -4.6118974518580927e-07 -6.2188598117363402e-08 -4.3504971843094153e-06 -0.0018564076250261134 3.8186133058346099e-11 -2.9701063271968821e-11 -8.8971783698041766e-12 0.0000000000000000 -47.292355390977058 -125.96433165720771 138.67232254046354 244.31333887135355 0.0000000000000000 0.0000000000000000 0.0000000000000000 0.0000000000000000 3.3454580505619305 3.7166507567207683 1.3717345377405243 1.1717395984693226 1177.7273104075355 1177.7264454470908 1.1712107083830867 
-35.374985151503125 -141.60392929078785 131.77127373756676 -35.374985151503104 -141.60392929078793 131.77127373756682 30.522871108011039 7.8330462180542702e-06 1.1547496405847568e-05 1.2450203274221084e-06 0.0000000000000000 -1.4663575507068967e-07 -1.2320989362300654e-07 -3.5556788286862889e-06 -0.0018661292795948527 1.4609128046213728e-10 -1.1285170797316118e-10 -9.9308065367436644e-11 0.0000000000000000 -34.196989160350306 -140.43319657724166 139.21506628885933 210.16870282748488 0.0000000000000000 0.0000000000000000 0.0000000000000000 0.0000000000000000 3.3450119581240889 3.7162926224354189 1.3718467474987717 1.1714158098070031 1171.9022097324557 1171.8936816070573 1.1712585792999581 
-32.031133757955885 -128.55508554005854 135.71682413598913 -32.031133757955885 -128.55508554005851 135.71682413598916 18.454593073645242 7.7462915941611858e-06 -2.1188232648940230e-06 1.6571469626246736e-05 0.0000000000000000 -3.6766961697409783e-10 -7.8296480410244840e-11 -2.8818760888782435e-06 -0.0018293293881887602 1.3390994653828461e-11 -1.9084416581257206e-11 -1.2731113677701987e-10 0.0000000000000000 -30.948229910445860 -127.64113600963313 142.72864290474456 229.21992526850030 0.0000000000000000 0.0000000000000000 0.0000000000000000 0.0000000000000000 3.3398264477671229 3.7045591860955054 1.3652445629649181 1.1695159952332266 1179.1633171127055 1179.1753499391243 1.1684377278105158 
-49.954397774941022 -131.88751270099735 140.30544563608700 -49.954397774941043 -131.88751270099735 140.30544563608694 35.895562895675816 1.6847599768481106e-05 2.3994174957920707e-05 -1.3191211237167709e-05 0.0000000000000000 -3.9182044858576437e-07 5.3111240025760266e-08 -3.7418660193847171e-06 -0.0017907343842535890 1.7910732022149430e-11 1.5814519058400375e-10 -1.3432039938313629e-10 0.0000000000000000 -48.406431667502837 -130.90513559487593 146.85896726379221 225.63426853136377 0.0000000000000000 0.0000000000000000 0.0000000000000000 0.0000000000000000 3.3488592388346472 3.7241597994969982 1.3758659536218405 1.1729236220594734 1169.9507347525605 1169.9510268804950 1.1729725912480504 
-54.645022245938236 -84.906711185891993 62.914787770917741 -54.645022245938215 -84.906711185891965 62.914787770917727 -1.6618535268756367 1.1563229996275601e-06 0.00012414213224723903 -6.9831699634461506e-05 0.0000000000000000 1.0241102084620490e-07 -1.3831535661472529e-06 -7.6897653057159286e-06 -0.0038938680018486731 -1.8270309947903649e-10 -5.0179470432164592e-09 -8.3037045833115275e-10 0.0000000000000000 -53.009977022357148 -84.940192361847963 77.707205907375524 356.07450292316213 0.0000000000000000 0.0000000000000000 0.0000000000000000 0.0000000000000000 3.3516547049772454 3.7303346010765641 1.3792513895834684 1.1724278700090840 1197.9311141073629 1197.9340924946653 1.1743751504364897 
-41.608662014535689 -85.701093957941055 51.539140501763562 -41.608662014535660 -85.701093957941069 51.539140501763548 -115.48457610725765 2.5909518879200954e-05 2.8077095963112069e-05 -9.7738337693430475e-05 0.0000000000000000 -7.2224582909921933e-08 -2.1717062341494036e-07 -6.5508870098670577e-06 -0.0034608052843585744 -6.1264318094980669e-10 -4.9429251964708454e-10 1.0050534982173375e-09 0.0000000000000000 -40.313282635619565 -85.652866469445740 67.489144002613742 334.72004880612383 0.0000000000000000 0.0000000000000000 0.0000000000000000 0.0000000000000000 3.3334348986261082 3.6912427962057568 1.3583093697800026 1.1671090131369770 1391.8713690094453 1391.8830368794659 1.1654456616080047 
-44.249893909976237 -94.297141038595740 69.188127378687511 -44.249893909976215 -94.297141038595768 69.188127378687554 15.493229286244953 0.00010433839756915582 3.5456806182193345e-06 -2.9846155978166152e-05 0.0000000000000000 -3.9964229077389419e-07 -2.9354293592123239e-08 -8.0600450341647458e-06 -0.0034408924296400112 -2.6764841941210995e-09 -2.2714342382853682e-10 -3.5537784575502123e-09 0.0000000000000000 -42.930125987095458 -94.071309017270835 83.274511392489799 283.94561953274422 0.0000000000000000 0.0000000000000000 0.0000000000000000 0.0000000000000000 3.3555661233537966 3.7393989779938286 1.3844666248762418 1.1725220387099602 1183.0697530331815 1183.0654051849042 1.1766343452081178 
-46.394838395845042 -99.318639614921295 52.218387451338920 -46.394838395845021 -99.318639614921281 52.218387451338920 -31.532960232604061 0.00017821476604974680 2.5368150899818687e-05 -0.00016599909486737579 0.0000000000000000 -4.9179676997468391e-10 -2.9885871555279664e-11 -6.4926796774500426e-06 -0.0035007597935809496 5.5950893503076965e-10 6.1853701235268347e-10 2.5330237398669920e-09 0.0000000000000000 -44.946335306532468 -98.969717126470769 68.015559797458934 339.42980011114588 0.0000000000000000 0.0000000000000000 0.0000000000000000 0.0000000000000000 3.3493822564125404 3.7268664522713491 1.3781362790079159 1.1715542742051945 1225.2891235173518 1225.3158760418598 1.1739258410686841 
-36.798123081212339 -101.21342356933154 60.365977564739552 -36.798123081212339 -101.21342356933154 60.365977564739531 -57.756586829680650 8.5300244576682650e-05 2.0612856222783140e-05 -5.5841536604307927e-05 0.0000000000000000 -2.8176505327527958e-07 2.5732568241015611e-07 -6.7612717219783995e-06 -0.0033675952230071676 -1.2919278093134778e-09 8.2455754867686137e-10 -5.6372780532542218e-10 0.0000000000000000 -35.672109309640206 -100.83293553867907 75.360366609178811 338.44965823895870 0.0000000000000000 0.0000000000000000 0.0000000000000000 0.0000000000000000 3.3298665134426431 3.6832528842754231 1.3538618518303633 1.1672922266504977 1284.9794427897277 1284.9763883673186 1.1635496501647788 
-50.529536583793764 -112.59763064534147 49.276430279420616 -50.529536583793750 -112.59763064534148 49.276430279420616 -17.695641349084781 0.00017154492684475116 -2.2965433590788370e-05 -7.1673945815396356e-05 47.082002113492955 -5.2752507917475100e-10 -5.1878057405474471e-11 -6.6199015762435920e-06 -0.0029536576960613177 9.9528711059356406e-10 -7.3102435805178814e-10 1.9047259640433805e-10 -0.0026162349265629391 -48.975793059600008 -111.99207679200002 65.383142959360015 326.57209562220959 0.0000000000000000 0.0000000000000000 0.0000000000000000 0.0000000000000000 3.3401913414530564 3.7048295120894821 1.3651231988187467 1.1700478468900601 1208.2629581104050 1208.2750526422694 1.1683735814993539 
-26.173342395826186 -111.05766360721695 51.608292384102896 -26.173342395826211 -111.05766360721692 51.608292384102917 -136.66836221171340 2.9507906160926806e-05 1.4847704680214134e-06 -6.9059686866407275e-05 0.0000000000000000 -3.1704544545263502e-10 -4.9321435824367654e-11 -6.5190625981870198e-06 -0.0030411146843964446 -1.1974524475924693e-10 2.3363423651163865e-10 -3.5983533086779245e-11 0.0000000000000000 -25.239536857883341 -110.48187134057846 67.469656361758609 349.35568362690350 0.0000000000000000 0.0000000000000000 0.0000000000000000 0.0000000000000000 3.3356334824646541 3.6958800134671779 1.3607589091146581 1.1674210363833484 1440.4905139555217 1440.4875264609532 1.1665153332286173 
-45.501620777260257 -111.85989790696367 61.647300135250212 -45.501620777260293 -111.85989790696371 61.647300135250191 -5.9193730129188395 7.5926033089662837e-05 -8.4421071725598914e-05 -3.3703080369290730e-05 0.0000000000000000 -4.8407627906144057e-10 -5.0651038918658748e-11 -6.0849360892234472e-06 -0.0029371955086596479 2.7759399494220317e-10 2.4904779930129517e-10 -1.2030911525006216e-09 0.0000000000000000 -44.075852747763513 -111.26860156453857 76.452402029906395 268.59635586333832 0.0000000000000000 0.0000000000000000 0.0000000000000000 0.0000000000000000 3.3490477807612669 3.7259170112539555 1.3774935101001831 1.1720672099754510 1235.9384588834303 1235.9342327451893 1.1736713837705401 
-60.049744340977412 -107.10524680867017 93.902329286684846 -60.049744340977433 -107.10524680867015 93.902329286684861 33.421878262648988 9.5245229824782269e-06 -6.7839376337645557e-06 5.6938025942611897e-06 0.0000000000000000 -4.0444043086168811e-07 -1.2166875035958547e-07 -6.5178353160124525e-06 -0.0022058383906275081 1.1512928591641489e-10 3.9952846456890030e-10 -2.5311085487933213e-10 0.0000000000000000 -58.254647241440821 -106.62760994408018 105.33920711112118 241.62621693813244 0.0000000000000000 0.0000000000000000 0.0000000000000000 0.0000000000000000 3.3489521511592057 3.7254044559597617 1.3770739722911494 1.1732793018510972 1173.2281293982480 1173.2281561057280 1.1734862886434207 
-66.396436077787868 -90.162944125730789 84.176018579101552 -66.396436077787882 -90.162944125730760 84.176018579101552 37.270018657711020 -8.2079874948136605e-06 -3.4662958365058720e-05 4.1851198612100598e-05 0.0000000000000000 -2.3273227885889466e-07 3.2934430363323638e-07 -6.9532281885283757e-06 -0.0024924926478726637 -5.9249967708328009e-10 2.2224800179453237e-10 5.7615114981244783e-10 0.0000000000000000 -64.370648572599308 -90.090304358695661 96.688480747766732 239.98138923263960 0.0000000000000000 0.0000000000000000 0.0000000000000000 0.0000000000000000 3.3553629556399671 3.7395684455195384 1.3848567581110602 1.1736470502865757 1169.5989815825924 1169.5997775294711 1.1767868652847584 
-78.233777990878778 -100.00211605839263 89.369586284550522 -78.233777990878778 -100.00211605839272 89.369586284550550 38.312767829771126 -2.9767324181548498e-06 1.3651264114876517e-05 -1.0714193929356414e-05 0.0000000000000000 -4.9927292769294270e-07 -4.9939922526392553e-08 -6.3310064643844451e-06 -0.0024965978026170788 -3.8661022698732364e-10 4.7586480391219282e-10 -4.6951676569906534e-10 0.0000000000000000 -75.913673002404863 -99.702254402691466 101.32606574872912 288.13617662859207 0.0000000000000000 0.0000000000000000 0.0000000000000000 0.0000000000000000 3.3549484242284811 3.7390539909931282 1.3847912136814238 1.1745336746363018 1170.8051863850237 1170.8049619502192 1.1767811470416454 
-56.902922274661307 -93.777962292622036 91.629850297667446 -56.902922274661265 -93.777962292622021 91.629850297667431 31.968058780715339 3.9139563026730069e-06 1.4793964183281481e-05 2.6939213917654438e-05 0.0000000000000000 -2.0743133698636124e-07 1.3356477558699383e-07 -6.8656616546028581e-06 -0.0023266537013881382 -1.3654780627909123e-10 -1.2363874191095624e-10 1.3357138535964594e-11 0.0000000000000000 -55.164710769962618 -93.586508083202432 103.32606452766413 222.68531933077850 0.0000000000000000 0.0000000000000000 0.0000000000000000 0.0000000000000000 3.3516932096213319 3.7311348174725270 1.3800581920427677 1.1740269515706008 1191.2441448910822 1191.2440346163205 1.1747581406395569 
-47.232604566166096 -177.76070855478423 150.15663202966840 -47.232604566166103 -177.76070855478426 150.15663202966837 44.026051834805877 -1.5537296850174745e-05 4.6473321408804277e-06 1.5420654340397006e-05 0.0000000000000000 -4.9903764454128918e-10 -1.5974865874568420e-10 -2.2574415261544800e-06 -0.0017422146853522981 5.0735043927915959e-11 -1.8249028088505372e-11 2.8801612247125426e-11 0.0000000000000000 -45.762777822239421 -175.89580528354742 155.64915507299250 248.91339099022119 0.0000000000000000 0.0000000000000000 0.0000000000000000 0.0000000000000000 3.3490625302070032 3.7240799355973411 1.3755607797906537 1.1721073977622614 1151.3032897535229 1151.3032458499395 1.1728388364354700 
-53.053480907407341 -187.61822217143330 164.13157552995230 -53.053480907407341 -187.61822217143330 164.13157552995227 46.149353808783758 7.7589024830498980e-06 -7.5127882562451305e-06 -8.7196609593679063e-06 39.516333694689656 -5.4933874116258608e-10 -1.7606360813715582e-10 -1.6531095283767172e-06 -0.0016398898430738465 2.0515325912098247e-11 -6.0608441198346611e-11 -7.0937823808145836e-11 -0.0016468539092425944 -51.435495451599998 -185.56281141599996 168.15371392000000 294.81703600272857 0.0000000000000000 0.0000000000000000 0.0000000000000000 0.0000000000000000 3.3411747228428159 3.7077328552310624 1.3670940457679770 1.1697209066773027 1128.2914645462677 1128.2915059439081 1.1692293591183434 
-44.061559055478867 -172.94410969778758 162.01646590715151 -44.061559055478860 -172.94410969778761 162.01646590715151 46.977346831528251 7.9967462674073477e-06 -6.5939351795115244e-06 -7.5303437531316140e-06 0.0000000000000000 4.2995861957885820e-09 2.2629259546315001e-07 -1.8939402862346199e-06 -0.0016847997055791934 5.9532979123565255e-11 1.1821020182169295e-10 -6.4238291189994848e-11 0.0000000000000000 -42.672974891599750 -171.18173466392949 166.26923354793541 271.88244999766295 0.0000000000000000 0.0000000000000000 0.0000000000000000 0.0000000000000000 3.3438146991004629 3.7132617148498364 1.3699891266675754 1.1705867497974873 1130.3512843758583 1130.3513050122344 1.1704656599674628 
-61.208284518072261 -179.92409656306330 152.50519937641013 -61.208284518072283 -179.92409656306333 152.50519937641005 42.420718820238029 8.0624383923436112e-06 -2.2821518633329000e-06 -2.7692398346986183e-06 0.0000000000000000 -6.1981414445355654e-10 -1.6335333086203718e-10 -2.1558801464038879e-06 -0.0017218578365592739 -1.4990578192974118e-11 1.7955815831285011e-11 -7.9232164711920726e-11 0.0000000000000000 -59.382734921100123 -178.01738339707751 157.75061606229067 243.94852352315442 0.0000000000000000 0.0000000000000000 0.0000000000000000 0.0000000000000000 3.3435467911825945 3.7123889304565401 1.3693671543497008 1.1704802768626508 1134.3520003084259 1134.3519656568305 1.1701995273889834 
-31.703598323747258 -103.15416173852479 82.690866747541264 -31.703598323747240 -103.15416173852479 82.690866747541293 14.620008583449758 1.0425972556762959e-05 4.0487435621576220e-05 -5.4049444951853171e-05 0.0000000000000000 4.2720763126293058e-07 -4.7963424075008806e-07 -6.3429801657587806e-06 -0.0029769300488547107 9.4453135190665179e-10 -2.5738643354273736e-09 -5.3279220363345809e-11 0.0000000000000000 -30.660097366607719 -102.72526557899965 95.328291536857705 204.58703120518373 0.0000000000000000 0.0000000000000000 0.0000000000000000 0.0000000000000000 3.3476793892038050 3.7200309296180092 1.3728480679106563 1.1707090413854038 1183.0826778530393 1183.0825689202620 1.1716821936523976 
-19.569951027966034 -111.49010072936640 80.536362256430209 -19.569951027966038 -111.49010072936643 80.536362256430223 -39.634386531171764 5.3534845649021924e-05 -5.3331533372406163e-06 -7.0758892426634764e-05 0.0000000000000000 -2.5998142527683399e-10 -5.0042636701164156e-11 -5.2680981248443004e-06 -0.0029996793493131534 -1.5540244096984755e-09 -6.2123162976602005e-11 7.3059718811604046e-10 0.0000000000000000 -18.804221549666405 -110.90595113131390 93.354036648627854 267.24800799435923 0.0000000000000000 0.0000000000000000 0.0000000000000000 0.0000000000000000 3.3372658197893084 3.6977367736862585 1.3609244309407105 1.1680241902731732 1271.7809383789111 1271.7807863517926 1.1665877537570857 
-34.891518903224430 -105.20370722570493 71.118279628055532 -34.891518903224430 -105.20370722570489 71.118279628055504 -21.381664405620203 7.0449306770222915e-05 -3.0625387814276399e-05 -4.7422908275131431e-05 0.0000000000000000 4.4525484269768159e-07 -7.4777712682858451e-08 -6.5671338145913173e-06 -0.0028367172067085321 7.5284661687889253e-10 -3.8576832560406940e-11 2.3297076982783294e-10 0.0000000000000000 -33.815892125380543 -104.71065599625929 85.007910193808286 270.69679205096202 0.0000000000000000 0.0000000000000000 0.0000000000000000 0.0000000000000000 3.3362183178460616 3.6970412612755998 1.3613366682469132 1.1683507661928794 1224.6466418934040 1224.6475106548539 1.1667464597863855 
-19.689967991238433 -100.75638976286838 82.820742465493964 -19.689967991238429 -100.75638976286838 82.820742465493979 -12.657193085887060 3.0435375718065962e-05 -2.0600298968866813e-05 -6.0739085025628323e-06 0.0000000000000000 -2.6101670824729695e-10 -3.2267744032310475e-11 -5.1693124660801004e-06 -0.0026794520078893785 -5.2728834342015112e-10 -5.8292535124895663e-10 -1.8729312646592066e-10 0.0000000000000000 -18.921183722278450 -100.37968114352928 95.398064000337470 185.31956687594098 0.0000000000000000 0.0000000000000000 0.0000000000000000 0.0000000000000000 3.3427778905272802 3.7101186912081436 1.3678378446167054 1.1691721916874416 1242.3139158571435 1242.3141695344150 1.1695503427749612 
-32.198763077546388 -118.68228383513117 169.79856277168952 -32.198763077546374 -118.68228383513120 169.79856277168949 26.523961345990692 3.6529170672419430e-05 5.2940832426193749e-05 -2.1342451183217886e-05 0.0000000000000000 -8.7442587807009299e-08 2.1264134365984266e-08 -1.3306488516409707e-06 -0.0020622651496883418 -1.6027740252632595e-10 -1.7772444066504656e-10 1.8760859959033286e-10 0.0000000000000000 -31.124431206993112 -117.97934695114738 173.21200361760444 258.17126679857051 0.0000000000000000 0.0000000000000000 0.0000000000000000 0.0000000000000000 3.3448264257688058 3.7149090065856702 1.3706043157328449 1.1712008206412556 1167.1425082256164 1167.1391769881955 1.1707253355685732 
-31.717688408551087 -134.14650632089845 160.38986481397683 -31.717688408551105 -134.14650632089845 160.38986481397669 33.518783163727733 4.5911639467561976e-06 1.0908815044609470e-05 -9.2760121339805699e-06 0.0000000000000000 -1.7442123839744630e-07 1.3505907211824076e-07 -1.8012640655405046e-06 -0.0018185823105112016 -4.7893246059584658e-11 1.4851548314872969e-10 1.2499058071753559e-11 0.0000000000000000 -30.642131568542830 -133.13454878399213 164.80820313575899 262.24283076768535 0.0000000000000000 0.0000000000000000 0.0000000000000000 0.0000000000000000 3.3458136889136374 3.7174116165571869 1.3721407134345822 1.1712925840295423 1164.3808594499785 1164.3840159911842 1.1713840615872684 
-44.058323648869539 -120.84352242556564 159.17308101501834 -44.058323648869546 -120.84352242556557 159.17308101501837 42.899763421241332 3.2443558842807182e-05 -6.6920435156993824e-06 -1.7646894658114638e-05 0.0000000000000000 -2.3279537411467735e-07 9.2734108706361272e-08 -1.8335625341150628e-06 -0.0020022769898862475 -1.0432518302066902e-10 5.7170055598322892e-11 8.0624156724637919e-10 0.0000000000000000 -42.676694985445003 -120.10595080876966 163.70375490782192 268.28772502602959 0.0000000000000000 0.0000000000000000 0.0000000000000000 0.0000000000000000 3.3505317217285731 3.7281904309757481 1.3782563381867472 1.1741962176370093 1164.0117106251275 1164.0099434635520 1.1739881964568537 
-24.642155582459448 -114.88370220263647 157.04501510288350 -24.642155582459431 -114.88370220263643 157.04501510288353 5.8528924771135378 1.4557026353191645e-05 1.3920866442485295e-05 5.6659708722629248e-06 0.0000000000000000 -3.0381347437824502e-10 -5.5659032938137898e-11 -1.9595604996425209e-06 -0.0018643947793352445 3.1206552811568081e-12 3.3599640579320929e-11 8.7232101646119653e-11 0.0000000000000000 -23.747323328369049 -114.23396745764113 161.81277151251504 321.01516800445251 0.0000000000000000 0.0000000000000000 0.0000000000000000 0.0000000000000000 3.3393768141642148 3.7031928109287975 1.3643107228628673 1.1688987682440368 1198.9458315616937 1198.9587797146594 1.1680390951281081 
-6.9068640302224091 -105.45506861133589 98.392581172683094 -6.9068640302224091 -105.45506861133593 98.392581172683094 26.920979872337043 2.7439059073500068e-06 -4.0635402652161331e-06 -3.4119847768986844e-05 48.463505236533372 -1.5054862911867420e-10 -4.0048409033488497e-11 -4.4959243972186869e-06 -0.0019383478674268079 3.3778436911397371e-11 -1.3052475076789538e-11 -6.2201031253776452e-10 -0.0018371978139894269 -6.4634479885999987 -104.98755276399999 109.33149947120000 327.67017865987640 0.0000000000000000 0.0000000000000000 0.0000000000000000 0.0000000000000000 3.3419035216744870 3.7091333337596684 1.3677584615463867 1.1694841318692100 1139.6997487268604 1139.7036465432943 1.1695120131436689 
-12.389811897160275 -97.429289216850265 89.570547875618004 -12.389811897160273 -97.429289216850279 89.570547875618004 -3.2583831852848917 7.5599676073360438e-06 -1.7801673607557887e-05 -5.2296380883946672e-05 -1.1129228855102995 -1.9793144900859266e-10 -2.6765478722268199e-11 -4.8774241072635505e-06 -0.0023598060510204464 -6.4872991481219280e-11 5.1099984724838312e-11 -3.3461382028664140e-10 -0.0023595098130859866 -11.806838433999999 -97.116880539599975 101.43768333439998 212.90238721710071 0.0000000000000000 0.0000000000000000 0.0000000000000000 0.0000000000000000 3.3420824062666759 3.7094704307159168 1.3679157100944206 1.1693762917408070 1218.1756970886859 1218.1742048659032 1.1695792657270765 
-16.538166124495511 -110.93349536809551 91.425456932722796 -16.538166124495508 -110.93349536809548 91.425456932722739 -0.68223763058097797 7.7649044931149551e-06 -9.9703463038004546e-06 -0.00010280776530666790 0.0000000000000000 -2.3378199376367093e-10 -4.9119375233885876e-11 -4.7972104759708145e-06 -0.0022790419480714433 2.3262801349864516e-10 -1.6584945333322802e-10 -7.5343546065498247e-10 0.0000000000000000 -15.849604639409371 -110.36010279166017 103.09742667861765 236.22178992679409 0.0000000000000000 0.0000000000000000 0.0000000000000000 0.0000000000000000 3.3387918256834435 3.7023839548222623 1.3641071891236818 1.1687959838318269 1203.6619993412010 1203.6630403498241 1.1679495486930938 
-24.644469812558242 -99.894259446040010 90.513974892810040 -24.644469812558228 -99.894259446040010 90.513974892809998 15.753962834621641 2.3309351262121786e-05 2.2407750918206814e-05 -5.4293865086768317e-05 0.0000000000000000 -3.0383423554880546e-10 -3.0837332687383423e-11 -4.8366265765764638e-06 -0.0022828175540163843 1.9523857444366509e-13 2.5760820641834149e-10 -6.4722035557495773e-10 0.0000000000000000 -23.749578654390465 -99.534212460059550 102.28184693721489 211.57004919854941 0.0000000000000000 0.0000000000000000 0.0000000000000000 0.0000000000000000 3.3410558306472158 3.7072296579175616 1.3666987757337452 1.1696356361043867 1176.7979518389545 1176.7965601990882 1.1690592704506033 
-55.779473269426994 -108.90942729987509 103.40494816972411 -55.779473269426965 -108.90942729987505 103.40494816972414 21.927202958144029 -1.2263066265991493e-06 -3.4411518830736660e-05 1.8119088222408891e-05 0.0000000000000000 -5.6777953216151633e-07 -2.6703964571423837e-07 -6.0297344757387769e-06 -0.0021474051852726017 3.4301963997740475e-10 -1.2268773942066669e-10 7.9091179502656092e-10 0.0000000000000000 -54.087034329299712 -108.37170302860723 113.84396407125838 191.01171882188567 0.0000000000000000 0.0000000000000000 0.0000000000000000 0.0000000000000000 3.3422017469932528 3.7102089355385606 1.3685645531162871 1.1706540411739894 1179.8011071996561 1179.8015011678281 1.1698565493912367 
-43.062558878232345 -108.27433221281140 100.19481161067372 -43.062558878232338 -108.27433221281136 100.19481161067371 27.122844476773412 2.8395945971137787e-07 -2.2396099579157800e-05 9.5828807675543310e-06 0.0000000000000000 -5.0989459183575603e-07 6.9586500052347403e-08 -6.0913816467131343e-06 -0.0018132443981287273 -4.2334617879604160e-10 7.6401203425381029e-10 4.7103152999763516e-10 0.0000000000000000 -41.690910404717421 -107.74885629568415 110.97670241767709 270.34727434602189 0.0000000000000000 0.0000000000000000 0.0000000000000000 0.0000000000000000 3.3461497877862749 3.7183709701645253 1.3727826924106739 1.1715766414247404 1177.6009339710990 1177.5999720615696 1.1716575244515570 