# For a description of the Tecplot format see the Tecplot User's guide.
#
Variables=x,y,z,s_u,s_v,s_w,s_p,mono_f_vel_u,mono_f_vel_v,mono_f_vel_w,const,u_nu,v_nu,w_nu,p_nu,x_nu,y_nu,z_nu,const,u_ref,v_ref,w_ref,vol_ref,x_ref,y_ref,z_ref,const,I1,I2,I3,J,p1,p2,p3
Zone f=fepoint, n=1339, e=6475, et=brick, c=black
-59.0540 -70.4277 175.744 -59.054028003966785 -70.427707385929224 175.74377682674958 -101.11222717626362 3.4083205376981619e-08 -1.7957799732425865e-07 9.1944543864267101e-07 -102.00873532758807 1.0571037101225755e-10 -4.1561198926842735e-12 4.8564703369891042e-08 -9.3969567241728233e-05 2.2366408822164502e-13 -6.5809705209729646e-13 1.0611091829210660e-12 -9.3521742531856573e-05 -58.668039002000000 -70.473359259200009 176.35421013599998 215.13583165143561 0.0000000000000000 0.0000000000000000 0.0000000000000000 0.0000000000000000 3.0680467891709182 3.1371661706121898 1.0691242814583723 1.0335381615516499 435.83745675467947 435.83745674827821 1.0339855557991569 
-65.384234472379205 -76.394171001383114 183.59412733386591 -65.384234472379177 -76.394171001383114 183.59412733386586 -105.80410601124372 -3.2405699569300818e-06 -4.5331077874692904e-06 4.8180277076825215e-06 -105.88196729220907 1.1533728139223598e-10 -1.8736123763574142e-12 3.4240265733842534e-08 -9.3126019205845114e-05 1.3601612849191367e-13 1.2434706812555222e-12 -1.9768007225137994e-12 -9.2715164049071293e-05 -64.963123215600007 -76.414687385200040 184.02450960799996 253.42820447565578 0.0000000000000000 0.0000000000000000 0.0000000000000000 0.0000000000000000 3.0691811195549268 3.1394854680648616 1.0703096847440388 1.0335381615516499 448.08850729845841 448.08850729410347 1.0345598535892564 
-70.110929262756486 -71.543193679263922 176.64695371413882 -70.110929262756486 -71.543193679263922 176.64695371413882 -102.49117850039204 -2.4162431542628867e-06 -7.1762880789274712e-07 2.3928592488972670e-07 -104.73308489025878 1.2252159009573662e-10 -3.7262415375494129e-12 4.6916697193921657e-08 -9.3530498275521518e-05 1.4159760028688236e-12 -1.8234993742264101e-13 8.8813928568947489e-13 -9.2926222435544563e-05 -69.663592608799988 -71.584146237200002 177.23667228800005 218.29881668600640 0.0000000000000000 0.0000000000000000 0.0000000000000000 0.0000000000000000 3.0697748773740723 3.1406851984918203 1.0709157356771910 1.0335381615516495 444.53237904381064 444.53237903819416 1.0348535819058184 
-57.542608386295029 -87.754115057968264 170.95046893176703 -57.542608386295058 -87.754115057968235 170.95046893176709 -94.969776478757609 -3.2384944048882428e-06 5.0534307020754998e-06 1.2222126856221958e-05 0.0000000000000000 1.0341787148870907e-10 2.4907298445953074e-12 5.7311017265249133e-08 -9.6815395043127795e-05 -1.9039849145191900e-13 -4.9489843718731344e-12 -3.2230163063087894e-12 0.0000000000000000 -57.165005282198301 -87.726774323660578 171.67083873969227 259.76550921814646 0.0000000000000000 0.0000000000000000 0.0000000000000000 0.0000000000000000 3.0627067818434299 3.1262460641721685 1.0635419895947436 1.0318261858472055 405.67966590075963 405.67966593099118 1.0312802689044533 
-89.452998117885826 -83.386864781552646 115.11186905162839 -89.452998117885784 -83.386864781552660 115.11186905162836 -85.275809124101229 -2.0517489476636319e-07 8.5677613390998448e-06 -4.1303069754939469e-06 0.0000000000000000 1.5190841640144725e-10 8.1135098639606450e-13 1.5919915785644892e-07 -0.00011093821295542094 8.0485512275976011e-12 -8.0687660526097679e-13 -3.6511471765529175e-12 0.0000000000000000 -88.898344731952406 -83.377922378373768 117.11292023788836 283.91631954144174 0.0000000000000000 0.0000000000000000 0.0000000000000000 0.0000000000000000 3.0631616874387984 3.1270676393352677 1.0639080198750888 1.0319719975082982 388.66047675359187 388.66047633532366 1.0314584371071254 
-98.198871414303824 -66.840938436410724 106.01035318861085 -98.198871414303810 -66.840938436410724 106.01035318861089 -99.528092920690426 2.5600025847356844e-07 3.2269194802413556e-06 -1.7895967441710639e-05 -102.13233004493108 1.6519001444503800e-10 -5.5264126608278730e-12 1.7580660749416668e-07 -0.00012172985042061086 -2.8124941417643575e-13 2.8170364155745841e-12 -1.8995026333483318e-11 -0.00012068138491668832 -97.595692787999965 -66.901700632800015 108.22015140479995 322.25788568967050 0.0000000000000000 0.0000000000000000 0.0000000000000000 0.0000000000000000 3.0689191915553740 3.1389826668778027 1.0700689668973402 1.0335381615516486 435.84733688581224 435.84733686469951 1.0344432114034383 
-80.165656729858725 -67.473352203444435 106.41495633388588 -80.165656729858725 -67.473352203444406 106.41495633388588 -97.451903684314132 -4.2804306664065646e-06 4.1961708474188260e-06 -8.0305009836382371e-06 0.0000000000000000 1.3778732321778620e-10 -5.2951532047984529e-12 1.7506834026903562e-07 -0.00012072138228337011 -1.8448525188042742e-12 -4.2949859572330051e-12 -1.9171068654250834e-11 0.0000000000000000 -79.662532843379708 -67.531450170133141 108.61547480962874 295.38956150422752 0.0000000000000000 0.0000000000000000 0.0000000000000000 0.0000000000000000 3.0648128112385451 3.1305459569757641 1.0657367930866171 1.0324328638388554 417.51801439731008 417.51801418413362 1.0323438311630777 
-95.063570736164763 -81.841937489559200 106.42604404190118 -95.063570736164806 -81.841937489559257 106.42604404190116 -95.205631958935953 -6.2574442591525770e-06 5.7315291267666826e-06 -1.3435121235942864e-05 0.0000000000000000 1.6042660255788377e-10 2.2709611968707577e-13 1.7504809779467226e-07 -0.00012604922760895456 -3.9182658305212408e-12 -1.2944753916736469e-11 -3.2658539705771324e-11 0.0000000000000000 -94.477787882002133 -81.839503548705352 108.62630821647583 293.80807890400462 0.0000000000000000 0.0000000000000000 0.0000000000000000 0.0000000000000000 3.0648171359284215 3.1305087259808335 1.0656948556436232 1.0324012089872394 410.58743098629213 410.58743099559422 1.0323234113764590 
-47.658342687804684 -126.13773934590670 137.21389077586826 -47.658342687804655 -126.13773934590664 137.21389077586821 -44.851123449769361 8.3131783890489663e-07 3.2750878396405740e-06 9.6535493289777634e-06 0.0000000000000000 -1.7312308686600710e-08 -8.7713665200469312e-09 1.7005122568938900e-08 -0.00010109908918710284 3.0411795256225321e-12 -3.1963226594553115e-12 -3.3999945028315714e-12 0.0000000000000000 -47.292355390977058 -125.96433165720771 138.67232254046354 244.31333887135355 0.0000000000000000 0.0000000000000000 0.0000000000000000 0.0000000000000000 3.0732100975769145 3.1478384276862994 1.0746364787392304 1.0368395860839592 357.35492853692273 357.35491632287625 1.0366466310861677 
-34.463629071297561 -140.68882546499580 137.74035015437676 -34.463629071297539 -140.68882546499574 137.74035015437676 -44.583725212418081 5.9109066765000210e-06 -5.3327282767509579e-07 4.7654670753766786e-06 0.0000000000000000 -4.3971801174405241e-09 -7.2430572959978967e-09 7.9815633632510283e-08 -0.00010202508082770605 9.1972405760673090e-12 -7.6497286532462420e-12 -5.5716227489903207e-12 0.0000000000000000 -34.196989160350306 -140.43319657724166 139.21506628885933 210.16870282748488 0.0000000000000000 0.0000000000000000 0.0000000000000000 0.0000000000000000 3.0721075946430720 3.1455529123486761 1.0734523717815465 1.0361090876923906 353.35716659737653 353.35741686223622 1.0360759290882742 
-31.179561378814896 -127.83733915920229 141.32888993353563 -31.179561378814917 -127.83733915920223 141.32888993353569 -50.480251258568444 4.2506894184131024e-06 1.8990637171013667e-06 1.0287847741552146e-05 0.0000000000000000 6.3355667934139603e-11 1.7867707313712344e-11 1.1136121358390481e-07 -9.8842835280376305e-05 9.0338280053355728e-14 -1.6042480235159532e-12 -1.1282569542437041e-11 0.0000000000000000 -30.948229910445860 -127.64113600963313 142.72864290474456 229.21992526850030 0.0000000000000000 0.0000000000000000 0.0000000000000000 0.0000000000000000 3.0700706660524486 3.1413584795443694 1.0712938458239440 1.0352899045312665 356.30874889362730 356.30872451499255 1.0350328725863205 
-48.776402766370168 -131.10039916027890 145.58426887931893 -48.776402766370182 -131.10039916027884 145.58426887931898 -45.885677640714569 4.3194267261836861e-06 1.1787037729761990e-05 -3.8989925014978903e-06 0.0000000000000000 -1.3703978498117140e-08 -4.5349099590404052e-10 2.1313639527170439e-08 -9.5712917593040770e-05 9.3850895486015382e-13 7.9005813000184397e-12 -9.1079249227367804e-12 0.0000000000000000 -48.406431667502837 -130.90513559487593 146.85896726379221 225.63426853136377 0.0000000000000000 0.0000000000000000 0.0000000000000000 0.0000000000000000 3.0740316021708334 3.1494906030515342 1.0754669976330336 1.0368455628616233 359.14399159990234 359.14396271641249 1.0370472196935951 
-53.364591112139784 -84.913819967792563 74.707245942371500 -53.364591112139799 -84.913819967792534 74.707245942371458 -93.087298891750734 -3.1531418134840258e-06 3.3166397667626422e-05 -6.0223779190033773e-05 0.0000000000000000 3.6654297601449729e-09 -1.2447444275303357e-07 1.0652233318996243e-07 -0.00026519606927790024 -1.5705905578779878e-11 -4.0281632149237388e-10 -7.9029027752187408e-11 0.0000000000000000 -53.009977022357148 -84.940192361847963 77.707205907375524 356.07450292316213 0.0000000000000000 0.0000000000000000 0.0000000000000000 0.0000000000000000 3.0666590073736826 3.1342899870644341 1.0676344768396968 1.0332178900981275 398.31224006669919 398.31273301171655 1.0332585721792391 
-40.593408947660059 -85.658523281441461 64.289222914408271 -40.593408947660031 -85.658523281441418 64.289222914408299 -131.89043744489038 5.4114180201438094e-07 9.5070717074615177e-06 -3.2888715883444688e-05 0.0000000000000000 -1.3847234461303853e-08 -2.1713217555523081e-08 2.5288000000003666e-07 -0.00022297176168383130 -5.4555856572447767e-11 -4.3226887123413863e-11 8.9990415344536898e-11 0.0000000000000000 -40.313282635619565 -85.652866469445740 67.489144002613742 334.72004880612383 0.0000000000000000 0.0000000000000000 0.0000000000000000 0.0000000000000000 3.0634829980662626 3.1279265074135809 1.0644475959621962 1.0323736272723214 473.45628294720655 473.45453972460211 1.0317191672142305 
-43.213485468931822 -94.091427017062145 80.424233099667333 -43.213485468931822 -94.091427017062131 80.424233099667376 -78.850956330220114 3.3734835225014048e-05 7.3480743886767072e-06 -2.5170336155571218e-05 0.0000000000000000 -4.1320011198453171e-08 -9.4328635609314113e-09 4.5236069697000060e-08 -0.00022760586874386379 -2.1961449509131753e-10 -2.6741182624804976e-11 -2.9536230961079312e-10 0.0000000000000000 -42.930125987095458 -94.071309017270835 83.274511392489799 283.94561953274422 0.0000000000000000 0.0000000000000000 0.0000000000000000 0.0000000000000000 3.0680143839151124 3.1370923067490728 1.0690824385863837 1.0334284175230932 385.42791565288269 385.42684247848831 1.0339629297657567 
-45.255766607712395 -99.044622456481335 64.862007251760829 -45.255766607712388 -99.044622456481321 64.862007251760829 -108.91735398138709 2.5315167141799496e-05 1.6566350780001756e-05 -5.0262276324387052e-05 0.0000000000000000 8.4745141459841022e-11 6.8189898172477115e-12 2.5088959709762554e-07 -0.00023203691283169784 2.0433635961030351e-11 5.6362914307848993e-11 2.1174918131623082e-10 0.0000000000000000 -44.946335306532468 -98.969717126470769 68.015559797458934 339.42980011114588 0.0000000000000000 0.0000000000000000 0.0000000000000000 0.0000000000000000 3.0669417117833144 3.1350146734396946 1.0680786498917956 1.0332001186868380 435.87078637667042 435.87256489009098 1.0334768285847493 
-35.910720980171646 -100.90288678475231 72.350436969089387 -35.910720980171625 -100.90288678475234 72.350436969089344 -102.30029954268568 1.8875199873441699e-05 1.0934756891817131e-05 -2.4270841609269109e-05 0.0000000000000000 -3.2680012068488168e-08 2.2291616030922061e-08 1.8919866566973156e-07 -0.00021644502479645168 -1.0930033668291755e-10 6.6768154577825957e-11 -4.3260959435123710e-11 0.0000000000000000 -35.672109309640206 -100.83293553867907 75.360366609178811 338.44965823895870 0.0000000000000000 0.0000000000000000 0.0000000000000000 0.0000000000000000 3.0621433144392158 3.1251979493745430 1.0630584853324621 1.0322176477606155 416.61331481210561 416.62700332602316 1.0310466643035598 
-49.307705972964470 -112.12207475064442 62.167797601231669 -49.307705972964463 -112.12207475064444 62.167797601231662 -96.702622021810868 3.5827384903751512e-05 1.2020590617152009e-05 -3.0007322145762353e-05 -82.023384065567271 9.0906435157300804e-11 1.1845191494330719e-11 2.5580569307237511e-07 -0.00018215101067207713 6.9496120364792856e-11 -4.6341815984045276e-11 1.2185264095690728e-11 -0.00015270407155793385 -48.975793059600008 -111.99207679200002 65.383142959360015 326.57209562220959 0.0000000000000000 0.0000000000000000 0.0000000000000000 0.0000000000000000 3.0671539929831133 3.1353110717397139 1.0681611956820229 1.0334365135498351 417.63773418383158 417.65737384543633 1.0335166002427023 
-25.439017732164270 -110.60548019692253 64.303289390883293 -25.439017732164274 -110.60548019692257 64.303289390883293 -123.14098911436237 6.6122875559235413e-06 6.5730173073354494e-06 -2.7980018114475245e-05 0.0000000000000000 5.4634199941894230e-11 1.1252554443785812e-11 2.5190908026218040e-07 -0.00018388395237879440 -1.2014743146578163e-11 1.6925527293166570e-11 -1.8796113572042971e-12 0.0000000000000000 -25.239536857883341 -110.48187134057846 67.469656361758609 349.35568362690350 0.0000000000000000 0.0000000000000000 0.0000000000000000 0.0000000000000000 3.0651030116499349 3.1311986890248975 1.0661000378934464 1.0327546954500091 464.99130965779284 464.89213827647103 1.0325203541492176 
-44.380427352956303 -111.39553877589476 73.496894186714513 -44.380427352956303 -111.39553877589472 73.496894186714556 -81.406223067996507 1.8931661460186309e-05 -1.6334745027125178e-05 -1.5034804844331691e-05 0.0000000000000000 8.3412624030110294e-11 1.1554868173391240e-11 2.3513359703741799e-07 -0.00018195910234902158 1.9951972024584868e-11 2.3160174858221858e-11 -8.8145317513022500e-11 0.0000000000000000 -44.075852747763513 -111.26860156453857 76.452402029906395 268.59635586333832 0.0000000000000000 0.0000000000000000 0.0000000000000000 0.0000000000000000 3.0692149527499972 3.1396351251226711 1.0704263049726881 1.0332839116023684 401.10660343148760 401.10662634179249 1.0346147225673408 
-58.686317481075868 -106.66800079250829 103.04519583500941 -58.686317481075839 -106.66800079250832 103.04519583500948 -37.840095427394779 6.3210683720032394e-06 2.2286479470904508e-05 3.9269801168526003e-07 0.0000000000000000 -1.1351126835204459e-08 -2.6559403271670779e-08 4.1780793174398862e-08 -0.00012641546123587515 7.4139064447923502e-12 1.6971213062220412e-11 -2.4665041633746686e-11 0.0000000000000000 -58.254647241440821 -106.62760994408018 105.33920711112118 241.62621693813244 0.0000000000000000 0.0000000000000000 0.0000000000000000 0.0000000000000000 3.0769826815824408 3.1554889814216129 1.0785153251191664 1.0381110256269697 353.76610813092265 353.76620836056105 1.0385155707649505 
-64.842233499829220 -90.051242892991255 94.157614916343348 -64.842233499829248 -90.051242892991255 94.157614916343377 -63.015636465741949 -1.1269874364821193e-05 5.8438805223289786e-06 1.8430862839912259e-05 0.0000000000000000 -3.1015257240341240e-09 4.5338310709523734e-09 5.7121879836231833e-08 -0.00014468341008076928 -5.7029827192581559e-11 1.5551382139267695e-11 3.6866907703292062e-11 0.0000000000000000 -64.370648572599308 -90.090304358695661 96.688480747766732 239.98138923263960 0.0000000000000000 0.0000000000000000 0.0000000000000000 0.0000000000000000 3.0714660942981244 3.1441220885873395 1.0726608004819245 1.0344130070009963 371.57090415214128 371.57091684849723 1.0356896199927721 
-76.463430498547069 -99.723646982258586 98.915892384270691 -76.463430498547055 -99.723646982258629 98.915892384270634 -57.174259553283193 -1.9079574772880452e-05 2.2753895382063225e-05 -5.0811871671062275e-06 0.0000000000000000 -1.7731694111678576e-08 -1.7697855520616937e-08 8.0783975190662609e-08 -0.00014630519920181309 -2.4918993676044921e-11 2.9087034721628980e-11 -4.2468535354579194e-11 0.0000000000000000 -75.913673002404863 -99.702254402691466 101.32606574872912 288.13617662859207 0.0000000000000000 0.0000000000000000 0.0000000000000000 0.0000000000000000 3.0732077782232965 3.1477279828150686 1.0745268409618725 1.0356396400890233 369.89599435586143 369.89600900978604 1.0365957944398430 
-55.574502087261038 -93.566285511387022 100.97117113165947 -55.574502087261031 -93.566285511386980 100.97117113165949 -58.570233099491752 -7.5126970870113674e-07 1.1867033334377564e-05 7.3430564087427618e-06 0.0000000000000000 4.7366460244322354e-10 -9.0227522778264770e-09 2.7429600489565413e-08 -0.00013062067518380705 -5.0141282075040944e-12 -1.5506520964408042e-11 6.6279463788191803e-12 0.0000000000000000 -55.164710769962618 -93.586508083202432 103.32606452766413 222.68531933077850 0.0000000000000000 0.0000000000000000 0.0000000000000000 0.0000000000000000 3.0717080068082216 3.1445615103715649 1.0728583179094786 1.0355815430575928 377.79337334454254 377.79345842151508 1.0357891011596960 
-46.076764313009100 -176.29615550342018 154.55269555187868 -46.076764313009100 -176.29615550342015 154.55269555187866 -46.862807287477459 -1.0398491566881095e-05 -1.1798821325120314e-05 2.3305571223810381e-05 0.0000000000000000 8.5996085252837418e-11 3.6455616303499028e-11 8.7231863510339749e-08 -9.2844191484133123e-05 1.2313459603049622e-11 2.2858204114135971e-12 -7.9273228703119444e-12 0.0000000000000000 -45.762777822239421 -175.89580528354742 155.64915507299250 248.91339099022119 0.0000000000000000 0.0000000000000000 0.0000000000000000 0.0000000000000000 3.0720477656389886 3.1452664799166752 1.0732240409484348 1.0351993775364463 345.56085997298158 345.56283020933182 1.0359642488511549 
-51.781131818256469 -186.00405904560006 167.35078384611242 -51.781131818256462 -186.00405904560009 167.35078384611239 -53.005152228634699 9.2052247754592345e-07 -1.4983675476912653e-06 -1.0309719531753620e-06 -55.886947354180400 9.4658655913626446e-11 4.0171643789221889e-11 6.3879320499893311e-08 -8.3262936023794393e-05 4.9057113379473874e-14 -4.4077948624251366e-12 -4.4801604921110364e-12 -8.3495098584057082e-05 -51.435495451599998 -185.56281141599996 168.15371392000000 294.81703600272857 0.0000000000000000 0.0000000000000000 0.0000000000000000 0.0000000000000000 3.0666339206602840 3.1342874811853840 1.0676580675530600 1.0335816305339574 345.12475911791483 345.12313441500368 1.0332758907277095 
-42.972165155379514 -171.55890775111027 165.42445931643945 -42.972165155379543 -171.55890775111035 165.42445931643945 -51.508229887061994 1.6779523819856167e-06 -1.6985111948726634e-06 6.0796316677074766e-06 0.0000000000000000 1.6410406947217113e-09 1.4182687276868648e-08 5.7108951033784498e-08 -8.6968865270037706e-05 4.9434591975583643e-12 8.5395958644083777e-12 -3.8951627447765145e-12 0.0000000000000000 -42.672974891599750 -171.18173466392949 166.26923354793541 271.88244999766295 0.0000000000000000 0.0000000000000000 0.0000000000000000 0.0000000000000000 3.0674166443635489 3.1358878466682394 1.0684759935096546 1.0339216233575064 343.54550092799843 343.54638316124880 1.0336712644976307 
-59.772711436391994 -178.42670920341303 156.70348580501599 -59.772711436391994 -178.42670920341303 156.70348580501602 -56.232368622339742 -6.3770213461365148e-06 -2.1817274480915023e-06 -8.0532230981974554e-07 0.0000000000000000 1.0680355211345470e-10 3.7266745245290161e-11 8.3307332587878591e-08 -8.7931128004135146e-05 -6.8394164513866091e-13 1.6187105107912076e-12 -3.3705825941582080e-12 0.0000000000000000 -59.382734921100123 -178.01738339707751 157.75061606229067 243.94852352315442 0.0000000000000000 0.0000000000000000 0.0000000000000000 0.0000000000000000 3.0671319033773639 3.1352691669493655 1.0681414983602933 1.0338626605420487 351.24615225966585 351.24597907977937 1.0335096916222328 
-30.892948323455080 -102.79383530215370 92.781763749177870 -30.892948323455091 -102.79383530215365 92.781763749177856 -51.776085498872227 9.3163961818687618e-06 1.6707298900319668e-05 -4.0376122078972529e-05 0.0000000000000000 3.1785989515195214e-08 -3.5912033354712045e-08 1.1957139214779931e-07 -0.00018729739166579326 6.6036524785799980e-11 -1.9779657641379001e-10 1.1767806868799586e-12 0.0000000000000000 -30.660097366607719 -102.72526557899965 95.328291536857705 204.58703120518373 0.0000000000000000 0.0000000000000000 0.0000000000000000 0.0000000000000000 3.0715189043998232 3.1441466851270814 1.0726320608858113 1.0352422981350906 355.97295085577474 355.97139553351485 1.0356786447752382 
-18.967797775751311 -111.03135410723539 90.795274306621039 -18.967797775751315 -111.03135410723543 90.795274306621053 -72.441027062587565 1.6105879784109872e-05 1.4834976633847382e-06 -3.5093134487009905e-05 0.0000000000000000 4.4800843590486750e-11 1.1413481271205228e-11 2.0356940932941825e-07 -0.00018522690891209110 -1.2165388295453755e-10 -3.8720474484408417e-12 6.1962499606190290e-11 0.0000000000000000 -18.804221549666405 -110.90595113131390 93.354036648627854 267.24800799435923 0.0000000000000000 0.0000000000000000 0.0000000000000000 0.0000000000000000 3.0667224947015668 3.1344062761945097 1.0676876787592500 1.0336094447665987 384.69942969810046 384.71050828235030 1.0332907825225168 
-34.048492311347033 -104.79905228169575 82.205096298635851 -34.048492311347019 -104.79905228169579 82.205096298635894 -77.137752589158325 1.6047408707152954e-05 -2.0242885128601947e-06 -2.8817993981252770e-05 0.0000000000000000 2.5480320201320342e-08 4.4141355866680376e-10 1.5829032165089762e-07 -0.00017338776141336690 4.9630709618735534e-11 1.4800049334660971e-13 1.9801203811458502e-11 0.0000000000000000 -33.815892125380543 -104.71065599625929 85.007910193808286 270.69679205096202 0.0000000000000000 0.0000000000000000 0.0000000000000000 0.0000000000000000 3.0642399865612435 3.1294705703813563 1.0652349928999920 1.0329306860795318 379.47682635468306 379.46563654940957 1.0320998712047098 
-19.085412517112328 -100.46055149262807 92.887282736752013 -19.085412517112328 -100.46055149262810 92.887282736752013 -63.521462170252498 5.7491576478198256e-06 -1.1764813465584107e-06 -9.7913374589649940e-06 0.0000000000000000 4.4978146207519381e-11 7.3583361626106125e-12 1.9975214460288271e-07 -0.00016233149921840624 -4.1961425277698896e-11 -4.1599783386705923e-11 -1.3332492700617101e-11 0.0000000000000000 -18.921183722278450 -100.37968114352928 95.398064000337470 185.31956687594098 0.0000000000000000 0.0000000000000000 0.0000000000000000 0.0000000000000000 3.0679884810766533 3.1369532526543087 1.0689686598598827 1.0337638308240054 371.37419177583519 371.37456382732205 1.0339111058456194 
-31.350635918024505 -118.12069647356425 172.55088386792553 -31.350635918024516 -118.12069647356428 172.55088386792553 -68.576656825059231 1.6336868810666586e-05 1.6366149542037054e-05 7.5777853151156826e-06 0.0000000000000000 -7.4614358713335329e-09 -3.2402574491147936e-09 5.5226229333127548e-08 -0.00011348274693726944 -1.3597012813858962e-11 -1.9130705119092801e-11 1.3756215843411503e-11 0.0000000000000000 -31.124431206993112 -117.97934695114738 173.21200361760444 258.17126679857051 0.0000000000000000 0.0000000000000000 0.0000000000000000 0.0000000000000000 3.0678724170613290 3.1367659965601620 1.0688977037931375 1.0341081884284073 375.58693607862620 375.58693643287120 1.0338752806782379 
-30.872755650528230 -133.34559788800874 163.93697163327448 -30.872755650528230 -133.34559788800877 163.93697163327454 -56.232070842656924 1.3816444245323394e-05 2.8672268728404802e-07 3.0535560279194278e-07 0.0000000000000000 -1.1028898619909056e-08 7.0236866347347217e-09 6.9680725934124195e-08 -9.6829654115816515e-05 -4.4477214334677037e-12 1.0202069654797089e-11 1.3331268012202408e-12 0.0000000000000000 -30.642131568542830 -133.13454878399213 164.80820313575899 262.24283076768535 0.0000000000000000 0.0000000000000000 0.0000000000000000 0.0000000000000000 3.0695559263332131 3.1402558833298988 1.0707053463819340 1.0349072369509593 361.37794821148958 361.37798668621684 1.0347485282523050 
-42.984553575861256 -120.23486124577391 162.84034711737920 -42.984553575861256 -120.23486124577400 162.84034711737920 -47.969034674410061 2.3647939891303257e-05 1.3592903225041877e-05 6.4011033772881473e-06 0.0000000000000000 -1.3897536285492856e-08 -4.3369237379908330e-09 6.4897647828671701e-08 -0.00011171875458409630 -1.4447227056675799e-11 2.3695540006277667e-12 5.7770884515709402e-11 0.0000000000000000 -42.676694985445003 -120.10595080876966 163.70375490782192 268.28772502602959 0.0000000000000000 0.0000000000000000 0.0000000000000000 0.0000000000000000 3.0758683496343782 3.1531700630573023 1.0773094548664945 1.0369058015468269 360.01895884917758 360.01895261213599 1.0379351356396755 
-23.938478674024800 -114.37344999919162 160.86099545833062 -23.938478674024815 -114.37344999919154 160.86099545833068 -69.167200668396433 7.7429823769056000e-06 5.9539461124645047e-06 8.1828130939647068e-06 0.0000000000000000 5.2352247537079677e-11 1.2708056829069390e-11 7.5721183989685414e-08 -9.8207060008012980e-05 -1.9209399260827039e-12 3.9166375885264743e-13 6.1816430336149892e-12 0.0000000000000000 -23.747323328369049 -114.23396745764113 161.81277151251504 321.01516800445251 0.0000000000000000 0.0000000000000000 0.0000000000000000 0.0000000000000000 3.0665930555695509 3.1341828542671819 1.0675938631669692 1.0337029598598444 375.50559974744237 375.50560633884385 1.0332451448538942 
-6.5581711574600625 -105.08791725751649 107.14778881136512 -6.5581711574600652 -105.08791725751645 107.14778881136516 -38.101664866107974 8.5522874700981941e-07 -4.8078037344789606e-07 -2.0070147507091444e-05 -29.650162324878821 2.5942165082781802e-11 9.1393004275630574e-12 1.7373113880836397e-07 -0.00010855287773987143 9.0320291678304881e-13 3.5234078950949505e-12 -4.2902814537931454e-11 -0.00010113814028578576 -6.4634479885999987 -104.98755276399999 109.33149947120000 327.67017865987640 0.0000000000000000 0.0000000000000000 0.0000000000000000 0.0000000000000000 3.0671868869430132 3.1354237348456659 1.0682415370290708 1.0338187806339911 313.55024892162231 313.55064704583975 1.0335580159102538 
-11.931374058804682 -97.183947225876096 99.068674855146583 -11.931374058804680 -97.183947225876082 99.068674855146583 -57.230668732636744 -1.6863992149718712e-06 -1.0607437990198217e-06 -2.2284075107570142e-05 -53.949999555442886 3.4106856228177662e-11 6.1053939681698921e-12 1.8847302118985001e-07 -0.00013820194000204101 -5.2541131628963273e-12 3.6440127299021440e-12 -2.2228993002994676e-11 -0.00013863279037760104 -11.806838433999999 -97.116880539599975 101.43768333439998 212.90238721710071 0.0000000000000000 0.0000000000000000 0.0000000000000000 0.0000000000000000 3.0667860021812996 3.1345789446475609 1.0677973435917278 1.0335381615516495 351.68607068950632 351.68745813990898 1.0333429296773302 
-15.996696128440094 -110.48319649179454 100.76737867388607 -15.996696128440094 -110.48319649179453 100.76737867388603 -49.787045054269356 9.3339218924068027e-06 -1.1399574851821823e-06 -4.1868626309028531e-05 0.0000000000000000 4.0284081626040802e-11 1.1206868766322486e-11 1.8537341794910842e-07 -0.00013235221980212482 1.2900462871228914e-11 -9.7651502143566073e-12 -5.5515390882701435e-11 0.0000000000000000 -15.849604639409371 -110.36010279166017 103.09742667861765 236.22178992679409 0.0000000000000000 0.0000000000000000 0.0000000000000000 0.0000000000000000 3.0666550215799551 3.1343459268249423 1.0676955006714233 1.0338020872733209 341.06201917112406 341.06376160755741 1.0332937347607893 
-23.940746583219450 -99.611505954164585 99.932654181069722 -23.940746583219447 -99.611505954164571 99.932654181069680 -49.605609071788137 1.0877423112874873e-05 1.8141938772621368e-05 -2.6796114454224424e-05 0.0000000000000000 5.2356466384573253e-11 7.0406458441141240e-12 1.8689652225845069e-07 -0.00013366238852971287 -3.1617421958543791e-12 1.3065032656951492e-11 -4.6234998082704860e-11 0.0000000000000000 -23.749578654390465 -99.534212460059550 102.28184693721489 211.57004919854941 0.0000000000000000 0.0000000000000000 0.0000000000000000 0.0000000000000000 3.0685966151186643 3.1383151156511615 1.0697234560501487 1.0344163394835544 345.04537649215030 345.04504204613636 1.0342740525436416 
-54.501784485724620 -108.42590851378417 111.76792187833081 -54.501784485724627 -108.42590851378417 111.76792187833080 -24.909664983972196 6.8046307544422694e-06 2.3376835156199583e-05 -1.6587678866893830e-05 0.0000000000000000 -1.6788188448502084e-08 -3.4003972776656079e-08 3.1723980035161721e-08 -0.00012215958132807150 4.0521970434070845e-11 -1.6040752080111012e-11 5.6693704292893261e-11 0.0000000000000000 -54.087034329299712 -108.37170302860723 113.84396407125838 191.01171882188567 0.0000000000000000 0.0000000000000000 0.0000000000000000 0.0000000000000000 3.0806262102895654 3.1629026999802363 1.0822865561005865 1.0396010011048074 337.91626436975162 337.91629316625199 1.0403302657037583 
-42.026742844920484 -107.80712142509135 108.82452817019509 -42.026742844920498 -107.80712142509131 108.82452817019517 -31.498396491608595 -5.9867886257857752e-06 1.6354217790585953e-05 2.5173236581025377e-06 0.0000000000000000 -1.8111114518606373e-08 -9.1472397516934541e-09 4.6985692139287510e-08 -0.00010137007104401450 -2.5170435302328718e-11 4.0837593477697093e-11 3.2544116456618745e-11 0.0000000000000000 -41.690910404717421 -107.74885629568415 110.97670241767709 270.34727434602189 0.0000000000000000 0.0000000000000000 0.0000000000000000 0.0000000000000000 3.0768748821850527 3.1551332705205799 1.0782653759788803 1.0382157303497626 345.26797136415365 345.26792374763374 1.0383956722199772 