# For a description of the Tecplot format see the Tecplot User's guide.
#
Variables=x,y,z,s_u,s_v,s_w,s_p,mono_f_vel_u,mono_f_vel_v,mono_f_vel_w,const,u_nu,v_nu,w_nu,p_nu,x_nu,y_nu,z_nu,const,u_ref,v_ref,w_ref,vol_ref,x_ref,y_ref,z_ref,const,I1,I2,I3,J,p1,p2,p3
Zone f=fepoint, n=1339, e=6475, et=brick, c=black
-60.0936 -70.3054 173.986 -60.093604137395772 -70.305361001009686 173.98621801051604 -365.56088488153000 -0.00017752997486092793 2.5925578761349985e-05 -3.3630149563452668e-05 -472.43807264047769 1.5833196143066888e-09 -4.7161829996866800e-11 3.1021266408970409e-06 -0.034338588730938216 -3.4075515082636138e-08 1.0405591918062474e-08 -3.0562634286583688e-08 -0.073146242486181512 -58.668039002000000 -70.473359259200009 176.35421013599998 215.13583165143561 0.0000000000000000 0.0000000000000000 0.0000000000000000 0.0000000000000000 3.2657166040844028 3.5471388377021573 1.2816883757521951 1.1308781547798519 2212.7653547436021 2212.7806005633256 1.1321208459214225 
-66.518404642604992 -76.339187378329370 182.35497123148363 -66.518404642604992 -76.339187378329370 182.35497123148357 -293.56776810146363 -0.00016451601410080483 0.00011035832138106697 -0.00016160650897759690 -336.26970760910615 1.7273932562122951e-09 -2.1203039324291240e-11 2.1871354327629433e-06 -0.023707359451893579 -8.1443839210014093e-09 1.4066794326816977e-08 -1.7903625849726044e-08 -0.023782950158657116 -64.963123215600007 -76.414687385200040 184.02450960799996 253.42820447565578 0.0000000000000000 0.0000000000000000 0.0000000000000000 0.0000000000000000 3.2652365245475945 3.5466810127787820 1.2817313002076838 1.1308781547798505 1993.6795956268247 1993.6883379844182 1.1321421904053648 
-71.315731748556715 -71.433441394029813 174.94903673798439 -71.315731748556701 -71.433441394029828 174.94903673798441 -369.28896233047271 0.00023152637366571181 6.3799550012448892e-05 -2.0200177240537063e-05 -372.42988401377437 1.8349707586740038e-09 -4.2309045156230241e-11 2.9968576065186885e-06 -0.029072055817234602 1.3116050639881927e-08 5.2979303050265787e-09 -3.5679723053069430e-09 -0.018593292171874089 -69.663592608799988 -71.584146237200002 177.23667228800005 218.29881668600640 0.0000000000000000 0.0000000000000000 0.0000000000000000 0.0000000000000000 3.2652548781981401 3.5474291706151964 1.2824928847841692 1.1308781547798505 2149.0295004299255 2148.9555370274716 1.1324689938382448 
-58.559598955786576 -87.827387845346706 168.87638108681926 -58.559598955786612 -87.827387845346635 168.87638108681941 -271.04383108881404 -9.7443573966093954e-05 0.00014217248490755105 -8.6390643991325982e-05 0.0000000000000000 1.5489204641117027e-09 2.8248736683167408e-11 3.6608067652821310e-06 -0.0010191796851815530 2.9360298360063686e-08 1.2758244046053933e-08 8.5601011328197487e-08 0.0000000000000000 -57.165005282198301 -87.726774323660578 171.67083873969227 259.76550921814646 0.0000000000000000 0.0000000000000000 0.0000000000000000 0.0000000000000000 3.2682390477392862 3.5488542127999514 1.2807432891128412 1.1337398937495096 1961.2554917151651 1961.1884116292772 1.1316875836137041 
-90.946834521005883 -83.410830297599290 109.35044499293073 -90.946834521005883 -83.410830297599261 109.35044499293069 -736.58201138002141 0.0019407850777919467 0.00026615772326860342 0.0010653737681090283 0.0000000000000000 2.2751808492760266e-09 9.2383878325108526e-12 1.0169029312834256e-05 -0.38181042242443325 -2.9713966804685383e-07 1.8166672289840526e-07 1.6425390719454367e-06 0.0000000000000000 -88.898344731952406 -83.377922378373768 117.11292023788836 283.91631954144174 0.0000000000000000 0.0000000000000000 0.0000000000000000 0.0000000000000000 3.2567201050379611 3.5247106650156428 1.2675859906067617 1.1170697656822002 2480.7434659965297 2484.4565818083061 1.1263983343728663 
-99.823399835851703 -66.678096595860126 99.647904943888406 -99.823399835851674 -66.678096595860112 99.647904943888406 -375.72274528786619 0.00015855372279877485 0.00022363759073222811 -0.00096968722251018487 -450.57712674113952 2.4742307369596261e-09 -6.2778671150454102e-11 1.1229849093297163e-05 -0.048715600882522907 -1.1074703447457916e-07 -1.0523734599184310e-07 -2.6527017733020986e-07 0.075843134365565543 -97.595692787999965 -66.901700632800015 108.22015140479995 322.25788568967050 0.0000000000000000 0.0000000000000000 0.0000000000000000 0.0000000000000000 3.2525441314502972 3.5197165509740929 1.2675952556180512 1.1308781547798519 2061.4991253975891 2057.6153702554611 1.1257020779055489 
-81.520709806180918 -67.317650461406970 100.07922630618485 -81.520709806180946 -67.317650461407013 100.07922630618485 -527.40369770908671 -0.00064273193379800865 -8.3204390961104973e-05 -2.3743519727085363e-05 0.0000000000000000 2.0638063757960627e-09 -6.0023319647939388e-11 1.1182690894173675e-05 -0.32261312043698603 1.6812513225927779e-06 -5.7583295121537883e-07 -5.3337119391825037e-07 0.0000000000000000 -79.662532843379708 -67.531450170133141 108.61547480962874 295.38956150422752 0.0000000000000000 0.0000000000000000 0.0000000000000000 0.0000000000000000 3.2791232052000789 3.5742500567762092 1.2952498059052286 1.1268202910761831 1734.1615308835023 1734.2564984571165 1.1383105740116408 
-96.641247487202847 -81.848460417168539 100.09104619780398 -96.641247487202847 -81.848460417168539 100.09104619780402 -314.09856532098388 -0.00028120373295954798 0.00028481510976476163 -0.00042168020829315070 0.0000000000000000 2.4028738165871033e-09 2.5179858198498550e-12 1.1181398580362156e-05 -0.10050805334622494 -5.5215003513848467e-08 -1.8664491163553899e-07 -2.0030371252106879e-07 0.0000000000000000 -94.477787882002133 -81.839503548705352 108.62630821647583 293.80807890400462 0.0000000000000000 0.0000000000000000 0.0000000000000000 0.0000000000000000 3.2874777716303973 3.5935510425585977 1.3061935965198079 1.1364380570227939 1896.2079226234878 1898.5444937675470 1.1429072780901111 
-48.704547132298615 -125.62983721350551 132.38557885473375 -48.704547132298579 -125.62983721350557 132.38557885473381 -402.13559750341864 -0.00050866880422133557 0.00082477550397088545 -0.00069791338589695847 0.0000000000000000 -7.9472693987702497e-05 0.00051461671632919298 -0.00032578497209490655 -0.33474545306710102 1.4567564969679147e-07 5.5923005336873022e-07 4.4598119869724849e-07 0.0000000000000000 -47.292355390977058 -125.96433165720771 138.67232254046354 244.31333887135355 0.0000000000000000 0.0000000000000000 0.0000000000000000 0.0000000000000000 3.2587154765651190 3.5286067057051258 1.2698364557955886 1.1249122986683144 2022.3033058425049 2022.3006340587167 1.1265728987367791 
-35.194844822071758 -141.21480180660038 133.42850541583394 -35.194844822071779 -141.21480180660043 133.42850541583400 -75.029585176780017 6.1271825874615498e-05 -2.5480328858309647e-05 0.00011408338128564589 0.0000000000000000 -6.3398995353432168e-05 9.0026391588505527e-05 -2.0665957383030102e-05 0.017841009920452313 -2.6405003409227251e-08 -1.4091518977916233e-07 6.2026302234705378e-08 0.0000000000000000 -34.196989160350306 -140.43319657724166 139.21506628885933 210.16870282748488 0.0000000000000000 0.0000000000000000 0.0000000000000000 0.0000000000000000 3.2858141665114449 3.5904223117648071 1.3048436375396202 1.1431878007563183 1703.3907599634977 1703.3909344749966 1.1422041044767102 
-31.802601600692103 -128.36316086901957 137.29872293934181 -31.802601600692114 -128.36316086901945 137.29872293934193 -158.09881094494631 0.00010897062650697955 -6.0436613500711742e-05 0.00030293895209797581 0.0000000000000000 9.4891763890991854e-10 2.0272650225194863e-10 7.1133257897315616e-06 -0.0086532927182269535 -1.4543725085407204e-07 1.1260116397317031e-07 2.5003822503728840e-07 0.0000000000000000 -30.948229910445860 -127.64113600963313 142.72864290474456 229.21992526850030 0.0000000000000000 0.0000000000000000 0.0000000000000000 0.0000000000000000 3.3009109857602832 3.6214579774335229 1.3206329117876832 1.1447252450917524 1914.4458285078563 1914.4460875849820 1.1488447917078348 
-49.752507725685703 -131.03506951343445 141.38361360558650 -49.752507725685717 -131.03506951343437 141.38361360558653 -92.453845222288692 0.00022545806634649616 6.0492963608153011e-05 3.3809020542256678e-05 0.0000000000000000 -9.1069214114992113e-05 0.00040906541307738140 -0.00033136777569666912 -0.10480025345023135 -1.2278422096624503e-07 5.7210332639818372e-07 -2.3497918955757797e-07 0.0000000000000000 -48.406431667502837 -130.90513559487593 146.85896726379221 225.63426853136377 0.0000000000000000 0.0000000000000000 0.0000000000000000 0.0000000000000000 3.3200579097686211 3.6629937181570109 1.3432503130339126 1.1514009068749678 1784.8254004915632 1784.8245002886538 1.1589576609404022 
-54.335859224182691 -84.847293777589840 66.442993304298966 -54.335859224182727 -84.847293777589826 66.442993304298923 -278.42709286294797 0.00013145516604464539 0.00051938412266275453 -0.00020983292871520033 0.0000000000000000 9.4736692994109778e-05 -3.5908225526809788e-05 0.00013443396202483208 -0.13801688238134843 5.2001437707271011e-07 -7.2723055952709264e-08 -3.4437051184508727e-07 0.0000000000000000 -53.009977022357148 -84.940192361847963 77.707205907375524 356.07450292316213 0.0000000000000000 0.0000000000000000 0.0000000000000000 0.0000000000000000 3.3164294211967862 3.6535279182460085 1.3374563860515454 1.1496818966394133 2154.6431371180811 2153.9470325158886 1.1563429030973118 
-41.359167016873691 -85.715155011907910 55.159533041699262 -41.359167016873691 -85.715155011907896 55.159533041699227 -531.48943658332144 -0.00011093748870517882 -0.00018453378353002248 -3.3488780293391053e-05 0.0000000000000000 -1.1747348396822489e-05 -4.9480156140516783e-05 5.4538295908196348e-05 -0.10212442662251683 2.6571107761260169e-08 -2.0669733089437142e-07 1.1114465729088526e-07 0.0000000000000000 -40.313282635619565 -85.652866469445740 67.489144002613742 334.72004880612383 0.0000000000000000 0.0000000000000000 0.0000000000000000 0.0000000000000000 3.2638407701108707 3.5426801019171466 1.2790799174189196 1.1325247262199378 2490.6035623759476 2493.4142911578551 1.1309914201407059 
-44.053917337448830 -94.174512768150620 72.598772155341806 -44.053917337448837 -94.174512768150620 72.598772155341763 -191.11938748840834 0.00043600142518083692 0.00029474053411266787 -0.00053334130035263990 0.0000000000000000 -0.00013549917919941512 0.00014205195773074437 0.00020197034599384335 -0.26578347813146652 -4.8695220485895621e-07 5.2348202585552653e-07 1.0209168899628157e-07 0.0000000000000000 -42.930125987095458 -94.071309017270835 83.274511392489799 283.94561953274422 0.0000000000000000 0.0000000000000000 0.0000000000000000 0.0000000000000000 3.3460735921547000 3.7127189582286633 1.3669328731810202 1.1566298809343567 2033.0335590407049 2033.0310159989820 1.1690645268681867 
-46.089151481383517 -99.245367698273128 55.782302728504376 -46.089151481383539 -99.245367698273171 55.782302728504405 -326.63466065724793 0.00074160779162686272 7.8123733434605838e-05 -0.00025414039830902089 0.0000000000000000 1.2692828177396365e-09 7.7386097530052211e-11 1.6025861054203006e-05 -0.097106756326623730 -1.8556470348176941e-07 4.8741443275915448e-07 -1.6728617908159293e-07 0.0000000000000000 -44.946335306532468 -98.969717126470769 68.015559797458934 339.42980011114588 0.0000000000000000 0.0000000000000000 0.0000000000000000 0.0000000000000000 3.2743252435298169 3.5651063277634338 1.2910652288241240 1.1367274614508756 1985.3515716192726 1982.7254488048275 1.1362962890866368 
-36.624813903819856 -101.10119107479953 63.779013953700328 -36.624813903819842 -101.10119107479949 63.779013953700321 -395.19330338052055 3.1210930403894933e-05 9.5611450910019667e-05 -0.00015049762390334151 0.0000000000000000 -6.7827082921994493e-05 6.9436002648684363e-05 0.00010593182007330043 -0.048492414570624184 4.0802785142408757e-08 1.2204909681443146e-07 1.5681575248541004e-07 0.0000000000000000 -35.672109309640206 -100.83293553867907 75.360366609178811 338.44965823895870 0.0000000000000000 0.0000000000000000 0.0000000000000000 0.0000000000000000 3.2679043527035434 3.5518666081954016 1.2842383470810157 1.1357013180300100 2195.5914969099995 2195.5883748857445 1.1333089881454084 
-50.201640104124692 -112.47046747031926 52.910179290144654 -50.201640104124685 -112.47046747031929 52.910179290144661 -294.63464244011874 0.00042455878486248247 -2.5849317046166758e-05 -0.00019175277503148653 -191.50096832104344 1.3615028271463103e-09 1.3431655787599084e-10 1.6339882467519828e-05 0.0080037976416074946 3.3560784230482664e-08 -1.1313493332901425e-07 3.1555797195691815e-08 0.088852870060619024 -48.975793059600008 -111.99207679200002 65.383142959360015 326.57209562220959 0.0000000000000000 0.0000000000000000 0.0000000000000000 0.0000000000000000 3.2624647591935267 3.5397575972026449 1.2775231876827038 1.1323031776642871 1954.1365852712540 1954.2838898951184 1.1302766378139961 
-25.976275412878778 -110.93675021136463 55.186689590773469 -25.976275412878760 -110.93675021136461 55.186689590773490 -533.21561989061479 -4.3791400635280588e-05 0.00012889079910169486 -0.00034545518509141528 0.0000000000000000 8.1826881381807937e-10 1.2770584589816278e-10 1.6090981958427619e-05 -0.0069984586955139302 9.9799832361929985e-08 -7.8444097900154650e-08 -1.4132330339091805e-07 0.0000000000000000 -25.239536857883341 -110.48187134057846 67.469656361758609 349.35568362690350 0.0000000000000000 0.0000000000000000 0.0000000000000000 0.0000000000000000 3.2594090082121987 3.5338791346437555 1.2747206744815138 1.1303434838006994 2390.3602111827490 2391.3241927186305 1.1290358000128244 
-45.200731788558421 -111.73572873544094 64.987399721826947 -45.200731788558421 -111.73572873544087 64.987399721826947 -245.31178468208412 0.00048615945325889261 -0.00028021827460077581 -3.2955839368478652e-05 0.0000000000000000 1.2493600876073428e-09 1.3115752928172239e-10 1.5019428833085158e-05 -0.097666394764975323 -4.2248526703579149e-07 -4.8772380988052376e-07 7.0245359343712401e-07 0.0000000000000000 -44.075852747763513 -111.26860156453857 76.452402029906395 268.59635586333832 0.0000000000000000 0.0000000000000000 0.0000000000000000 0.0000000000000000 3.2852236462090625 3.5874209236633310 1.3024691916056415 1.1451551394013506 1980.0880812659034 1980.0139666450470 1.1411296022739885 
-59.682725606135442 -105.91547852726110 96.921234431216178 -59.682725606135421 -105.91547852726113 96.921234431216206 -1419.1161315898114 6.9861714166178141e-05 -5.6474614304731210e-05 -0.00029547483185399329 0.0000000000000000 5.1254345125371493e-05 5.5555724154340340e-05 0.00021798817775711663 -0.54176307451754802 -1.0604518345543282e-07 -9.8060436323386799e-09 2.6919780220119915e-07 0.0000000000000000 -58.254647241440821 -106.62760994408018 105.33920711112118 241.62621693813244 0.0000000000000000 0.0000000000000000 0.0000000000000000 0.0000000000000000 3.0367558627957769 3.0625189254033578 1.0260750171565325 1.0468730394591017 3205.1151880540697 3205.6026344651332 1.0140487318027056 
-66.022140563666056 -90.110109352675693 87.964910945052054 -66.022140563666042 -90.110109352675650 87.964910945052011 -752.45575315216877 -0.00084694591115318598 -0.0018324606264451858 0.00092415214285876087 0.0000000000000000 0.00051505519513088914 0.00020241763126291505 0.00029157160871430012 -0.76087539617336297 2.3865659977035193e-06 1.9901710170279790e-06 6.7292243469105936e-07 0.0000000000000000 -64.370648572599308 -90.090304358695661 96.688480747766732 239.98138923263960 0.0000000000000000 0.0000000000000000 0.0000000000000000 0.0000000000000000 3.2505016359767471 3.4929353932147946 1.2422976315681746 1.1140149980936551 2683.7261481033784 2684.2503051161038 1.1139375018586366 
-77.236805479812460 -99.463694260788117 92.654387641771550 -77.236805479812517 -99.463694260788102 92.654387641771493 -1064.6838720183221 0.00075506425233701322 -0.00035907433061323218 0.00083513140856116322 0.0000000000000000 0.00033629633135995963 8.0878633686207464e-05 0.00023138473704134598 -0.27630885520691595 -8.0517525654832692e-08 -1.3790457939138920e-07 1.1249505168197132e-07 0.0000000000000000 -75.913673002404863 -99.702254402691466 101.32606574872912 288.13617662859207 0.0000000000000000 0.0000000000000000 0.0000000000000000 0.0000000000000000 3.1333269659963174 3.2547745657247980 1.1214743098191216 1.0828488858569953 2942.3251412538425 2939.8345487738566 1.0597264876418040 
-56.699660282656595 -93.220374715431021 95.212344059512418 -56.699660282656616 -93.220374715430978 95.212344059512375 -1325.0058713282406 0.00013710605131650756 -0.00054709688625700231 0.00082119193967968376 0.0000000000000000 0.00010056153993375615 0.00019976978070214971 3.0248094135826242e-05 -0.70586226517392392 -6.9494592546925398e-07 1.3192330404463950e-06 -1.9447178756010871e-06 0.0000000000000000 -55.164710769962618 -93.586508083202432 103.32606452766413 222.68531933077850 0.0000000000000000 0.0000000000000000 0.0000000000000000 0.0000000000000000 3.1081596062489556 3.2036689023822058 1.0955805889303567 1.0620681569099863 3176.5830243743981 3176.6609446413077 1.0477064898826614 
-46.922417583853751 -177.36908852004876 151.39577067773754 -46.922417583853751 -177.36908852004862 151.39577067773743 -53.107343641586944 -4.6022610608930410e-05 -9.1039800464530672e-05 3.5684317439348242e-06 0.0000000000000000 1.2879652067088190e-09 4.1364578429181620e-10 5.5720358709265838e-06 -0.0028770407845580713 -4.1793727069508113e-09 -6.1754281468615162e-09 -5.3909227946685044e-09 0.0000000000000000 -45.762777822239421 -175.89580528354742 155.64915507299250 248.91339099022119 0.0000000000000000 0.0000000000000000 0.0000000000000000 0.0000000000000000 3.2810640377604590 3.5805270211409814 1.2998071989899744 1.1392685092001738 1572.9003728175301 1572.9004389822683 1.1400649050582674 
-52.712027040115906 -187.18659655103070 165.03898858724452 -52.712027040115906 -187.18659655103070 165.03898858724455 -50.900573489779596 9.7471215672261750e-06 3.5151404946036375e-05 3.8194845337861682e-05 -60.864614041055653 1.4177975737883484e-09 4.5588577357591475e-10 4.0803651124576845e-06 -0.0036188722876014305 1.9393958001843307e-08 7.2052988363828835e-10 9.3309921495970651e-10 -0.0046560941769104459 -51.435495451599998 -185.56281141599996 168.15371392000000 294.81703600272857 0.0000000000000000 0.0000000000000000 0.0000000000000000 0.0000000000000000 3.2619748297809998 3.5391398760147079 1.2774172933721901 1.1321622438358512 1521.4284283766463 1521.4283535562465 1.1302428991550022 
-43.771239700469671 -172.54078025970367 162.95915050557991 -43.771239700469678 -172.54078025970372 162.95915050557994 -35.761757002358685 7.5082526095085014e-05 -4.9129800374975541e-05 2.9896038989341442e-05 0.0000000000000000 -4.4449285892867357e-06 2.5197172725147041e-05 -6.7729602667180602e-06 -0.0037382080860613523 4.6101476274623181e-09 -8.6899560377112961e-09 1.3139146516715393e-08 0.0000000000000000 -42.672974891599750 -171.18173466392949 166.26923354793541 271.88244999766295 0.0000000000000000 0.0000000000000000 0.0000000000000000 0.0000000000000000 3.2731316474548326 3.5631598677066121 1.2903274496559123 1.1360716734520138 1513.6025137523536 1513.6023387539512 1.1359259078559381 
-60.823027056343463 -179.52369666682699 153.68858968527766 -60.823027056343491 -179.52369666682705 153.68858968527772 -66.236020794688969 3.0730699995032756e-06 4.0428594557012876e-05 5.2796325174564257e-06 0.0000000000000000 1.5996754199054666e-09 4.2292724877768256e-10 5.3213522654971249e-06 -0.010769309600347509 -5.3113133517434488e-08 5.2284841333768767e-08 6.0541624346449061e-08 0.0000000000000000 -59.382734921100123 -178.01738339707751 157.75061606229067 243.94852352315442 0.0000000000000000 0.0000000000000000 0.0000000000000000 0.0000000000000000 3.2743307426505006 3.5659452237781020 1.2919286609729068 1.1356292535834687 1538.0517885486481 1538.0518297652040 1.1366193607753949 
-31.783297399498629 -102.92377969833566 85.628243449894455 -31.783297399498640 -102.92377969833568 85.628243449894413 -152.22842281535242 -8.3655353548523165e-05 -0.00019277443953645001 -0.0013037240317534703 0.0000000000000000 -0.00019071425897937197 0.00011146135177107120 0.00030585860261399435 -0.25785862396308340 -6.3095847544354553e-07 1.4606327990897200e-07 1.9221487180128068e-06 0.0000000000000000 -30.660097366607719 -102.72526557899965 95.328291536857705 204.58703120518373 0.0000000000000000 0.0000000000000000 0.0000000000000000 0.0000000000000000 3.3441759129516360 3.7099042434329967 1.3655333899479194 1.1518874615906045 1719.8343770601741 1719.8266142261443 1.1687137050177439 
-19.408354215877264 -111.36743233717235 83.428088989746868 -19.408354215877250 -111.36743233717240 83.428088989746826 -236.03219582684764 4.5776518272958177e-05 9.7668858526253657e-05 3.6164951416025358e-05 0.0000000000000000 6.7098623879324748e-10 1.2956946626729859e-10 1.3003230229458040e-05 -0.015540494564551270 5.5097779594120133e-08 -8.5654421246095747e-08 -7.5993295879056175e-08 0.0000000000000000 -18.804221549666405 -110.90595113131390 93.354036648627854 267.24800799435923 0.0000000000000000 0.0000000000000000 0.0000000000000000 0.0000000000000000 3.2765233166094281 3.5720451516544638 1.2958585407410863 1.1395735770360782 1865.8795814456830 1865.8814550245168 1.1383554350276375 
-34.926814941417994 -105.07260232426128 74.361078917463118 -34.926814941417994 -105.07260232426130 74.361078917463132 -351.83219475294123 -0.00035706069183155496 -0.00053913941183939007 0.00020327826474362032 0.0000000000000000 -0.00015409372660072764 7.5573708461321038e-05 0.00014410586395706244 -0.041628254953612331 -1.4133415094769837e-07 2.0876941226959621e-07 -1.7107245134905699e-07 0.0000000000000000 -33.815892125380543 -104.71065599625929 85.007910193808286 270.69679205096202 0.0000000000000000 0.0000000000000000 0.0000000000000000 0.0000000000000000 3.2865583403628880 3.5888619982445098 1.3025368916162514 1.1406735886037207 2281.4213929033144 2281.4591662996386 1.1412187810803582 
-19.527726507047699 -100.67728290254695 85.658244480521390 -19.527726507047699 -100.67728290254695 85.658244480521432 -192.64518465708480 0.00029403868386007116 -0.00023548370266876154 0.00035286961037135021 0.0000000000000000 6.7366287548331617e-10 8.3555162788684343e-11 1.2759397886696888e-05 0.018287976839992861 7.3922424290350835e-07 -3.9043104682597578e-07 -4.0960655446869146e-07 0.0000000000000000 -18.921183722278450 -100.37968114352928 95.398064000337470 185.31956687594098 0.0000000000000000 0.0000000000000000 0.0000000000000000 0.0000000000000000 3.2537149734076105 3.5230199631052646 1.2695978006899178 1.1369658092136323 1807.0707624386259 1807.0685219826917 1.1269576006439617 
-31.996575631792869 -118.48787415782090 170.52014599384688 -31.996575631792886 -118.48787415782090 170.52014599384700 -141.37444567623513 7.0108752805322501e-05 0.00023774117122801056 -0.00017333862263294375 0.0000000000000000 -3.1768660091048937e-05 1.4687534483679477e-05 -4.0318803768681952e-05 -0.012584378731375034 2.5485739633307453e-08 8.6385049844007317e-09 -1.0692913308593057e-09 0.0000000000000000 -31.124431206993112 -117.97934695114738 173.21200361760444 258.17126679857051 0.0000000000000000 0.0000000000000000 0.0000000000000000 0.0000000000000000 3.2807517782158304 3.5782544419963034 1.2977799026868686 1.1394309700015142 1790.5959313025448 1790.5984851059791 1.1391907270347810 
-31.530905670856598 -133.86033126785838 161.34765869179265 -31.530905670856583 -133.86033126785836 161.34765869179262 -97.190845158639334 2.2524346187513806e-05 0.00016208518143370616 -3.8394748480969815e-05 0.0000000000000000 -4.0528157891118957e-05 2.7344743448664930e-05 -2.8452372884033426e-05 -0.0084743444158766907 -2.5354748619769528e-08 2.7849969381100837e-08 -1.9956817307797101e-08 0.0000000000000000 -30.642131568542830 -133.13454878399213 164.80820313575899 262.24283076768535 0.0000000000000000 0.0000000000000000 0.0000000000000000 0.0000000000000000 3.2917111663262526 3.6022337183116941 1.3108521194405605 1.1425410479168916 1756.4782695353772 1756.4786555807291 1.1449158992669550 
-43.809702440334604 -120.44181780770387 159.91723055205017 -43.809702440334604 -120.44181780770393 159.91723055205014 -69.453502313111187 0.00029402873516326972 4.0598456004579569e-05 -5.6358222079446749e-05 0.0000000000000000 -8.2289613988229614e-05 0.00010181155640488320 -0.00020961272505732117 -0.0069701639496756000 -1.2948083299723299e-08 3.8008748493269311e-08 -9.2452460280555683e-08 0.0000000000000000 -42.676694985445003 -120.10595080876966 163.70375490782192 268.28772502602959 0.0000000000000000 0.0000000000000000 0.0000000000000000 0.0000000000000000 3.3085123732331470 3.6367844635325457 1.3285990224304702 1.1516955843965544 1809.6707717402512 1809.6684393949336 1.1526262106058551 
-24.453313382030757 -114.74726126903505 158.12064304019995 -24.453313382030739 -114.74726126903499 158.12064304019989 -200.25611717048264 -2.0858633242575393e-05 -9.8420296378087948e-05 9.6561771773133166e-05 0.0000000000000000 7.8411629966801399e-10 1.4411316584528322e-10 4.8367771299240303e-06 -0.0031632957617884435 -2.1183154630373438e-08 -5.7516526377729783e-08 7.1505906294667749e-09 0.0000000000000000 -23.747323328369049 -114.23396745764113 161.81277151251504 321.01516800445251 0.0000000000000000 0.0000000000000000 0.0000000000000000 0.0000000000000000 3.2753000202592668 3.5659129669334284 1.2908164787390961 1.1373093825187184 1902.7850506411178 1902.7848186572503 1.1361335817259992 
-6.8132870937378458 -105.35689270312825 100.86045182608675 -6.8132870937378449 -105.35689270312827 100.86045182608676 -52.441705917984578 3.0652730006451288e-05 -5.0192685628184842e-06 -0.00020643947526365359 -32.844363583711633 3.8855307860075067e-10 1.0369727299064378e-10 1.1097276196636583e-05 0.015958451318040228 6.1162158502274450e-08 -1.6085308801408019e-07 2.9557634358911356e-07 0.13485770955727011 -6.4634479885999987 -104.98755276399999 109.33149947120000 327.67017865987640 0.0000000000000000 0.0000000000000000 0.0000000000000000 0.0000000000000000 3.2749111999457110 3.5683255990429212 1.2938357662499809 1.1379633548772552 1558.8096327363089 1558.8095261105689 1.1374034886085320 
-12.266783261266246 -97.363685011568734 92.247828621253035 -12.266783261266244 -97.363685011568720 92.247828621253021 -136.28469123170817 0.00031030072999517104 -0.00059603248563794666 -0.00054895073212751333 -67.537740519236209 5.1084264596212847e-10 6.9289463056065870e-11 1.2038930751856471e-05 0.035773501881130702 7.0530399062621121e-08 -1.3567045574764851e-07 -2.1545571680238523e-07 0.18001052191737935 -11.806838433999999 -97.116880539599975 101.43768333439998 212.90238721710071 0.0000000000000000 0.0000000000000000 0.0000000000000000 0.0000000000000000 3.2350215852558444 3.4803731457083797 1.2455311365467800 1.1308781547798525 1486.3716195491800 1486.3740752081001 1.1163224627518091 
-16.392854569866437 -110.81308589476568 94.058707389234058 -16.392854569866433 -110.81308589476568 94.058707389234073 -194.79814912329118 -0.00020412932897161042 6.2452581489524871e-05 -0.00056779881718803773 0.0000000000000000 6.0336843854535961e-10 1.2717382702476243e-10 1.1840939713181342e-05 -0.023438202860226201 6.5411487600048393e-08 -8.1797241802485832e-08 -3.4505345077757032e-07 0.0000000000000000 -15.849604639409371 -110.36010279166017 103.09742667861765 236.22178992679409 0.0000000000000000 0.0000000000000000 0.0000000000000000 0.0000000000000000 3.2773704612404502 3.5728363099562430 1.2958084021319782 1.1383982867541775 1966.3773067158043 1966.3771498314461 1.1382761674631714 
-24.455615181223607 -99.818651442487877 93.168861352226557 -24.455615181223607 -99.818651442487877 93.168861352226529 -103.83109878039311 4.6590074498773876e-05 -0.00024533636819489842 8.3887222664145319e-05 0.0000000000000000 7.8416897975053246e-10 7.9860118518126910e-11 1.1938230343844225e-05 -0.22621544237909763 -1.8648490059193318e-06 -7.0626518095421832e-07 7.2853097341999537e-07 0.0000000000000000 -23.749578654390465 -99.534212460059550 102.28184693721489 211.57004919854941 0.0000000000000000 0.0000000000000000 0.0000000000000000 0.0000000000000000 3.3296353020399372 3.6836773525485413 1.3542097156525867 1.1487441553049245 1808.5963519823420 1808.5965736381286 1.1636025654234043 
-55.515831901023205 -107.30402938250093 105.84680470942114 -55.515831901023176 -107.30402938250091 105.84680470942114 -997.10341211990954 0.00082692359791389192 0.0014881392144545510 -0.0016050605050925801 0.0000000000000000 -0.00019948417467851828 -5.2723357107934047e-05 5.0919988536230261e-05 -1.2771210724867812 -2.6044712310987422e-06 -2.7804232151337119e-06 2.0602115425869459e-06 0.0000000000000000 -54.087034329299712 -108.37170302860723 113.84396407125838 191.01171882188567 0.0000000000000000 0.0000000000000000 0.0000000000000000 0.0000000000000000 3.1755386148057094 3.3513910651978107 1.1757754007946384 1.0755294380493552 2293.2594652127177 2293.0953806100906 1.0836618295446951 
-43.368603403499883 -107.13763789743676 102.97777228624435 -43.368603403499876 -107.13763789743676 102.97777228624440 -1142.1056217504479 -0.00065538614887944750 0.00020048965337491142 0.00019678427587660794 0.0000000000000000 -9.0293298411619902e-05 0.00023884885352821493 3.3463396530263744e-05 -0.45954884246015820 2.5818011496312288e-07 3.3616154804766950e-07 -3.9203229902958165e-07 0.0000000000000000 -41.690910404717421 -107.74885629568415 110.97670241767709 270.34727434602189 0.0000000000000000 0.0000000000000000 0.0000000000000000 0.0000000000000000 3.0765221685192619 3.1427686314512173 1.0659929876026242 1.0700249686269745 3237.6242980957418 3237.6147891711748 1.0339625287516414 