# For a description of the Tecplot format see the Tecplot User's guide.
#
Variables=x,y,z,s_u,s_v,s_w,s_p,mono_f_vel_u,mono_f_vel_v,mono_f_vel_w,const,u_nu,v_nu,w_nu,p_nu,x_nu,y_nu,z_nu,const,u_ref,v_ref,w_ref,vol_ref,x_ref,y_ref,z_ref,const,I1,I2,I3,J,p1,p2,p3
Zone f=fepoint, n=3174, e=16683, et=brick, c=black
-25.0437 -154.380 110.747 -25.043733721377620 -154.37972708462442 110.74729166364153 -10.245437113925835 1.6174349067711328e-06 -3.5730100112822036e-05 5.2018165203990715e-05 29.578163054105396 4.6501739403570497e-09 3.1797524890908586e-09 3.4745521713119851e-06 -0.00085044194658944600 6.7029072580454778e-09 2.9384151075764866e-08 1.5294597825184768e-08 0.0016846681445830828 -24.903554063199991 -154.16086777200002 112.24023381839994 89.724962256112903 0.0000000000000000 0.0000000000000000 0.0000000000000000 0.0000000000000000 3.0477488226465987 3.0960078315502173 1.0482603307937277 1.0256277088457204 261.92840693179193 262.85338877876109 1.0238452012792494 
-37.650299172664681 -155.34104629245303 113.46314270403438 -37.650299172664653 -155.34104629245303 113.46314270403442 -13.784042313929152 3.3596454564565122e-05 5.9700587516760049e-05 -9.7173768746956733e-06 0.0000000000000000 2.7831198732747721e-06 -9.5960927678376136e-07 5.8941440702006181e-06 -1.8468138291319646e-05 -1.6822208682023570e-09 -4.0012542316827046e-09 7.4895668321491078e-09 0.0000000000000000 -37.438273663334591 -155.10473791080037 114.93291110338620 89.036758072416930 0.0000000000000000 0.0000000000000000 0.0000000000000000 0.0000000000000000 3.0641469097628558 3.1295093452361722 1.0653690204553821 1.0307748470426179 381.38510063732849 381.76150566079201 1.0321719207408437 
-31.709076001484142 -148.07907247568698 118.49466365597935 -31.709076001484156 -148.07907247568707 118.49466365597935 -16.807043908774109 -1.6935167618645614e-05 4.3722904865460215e-05 5.0371479215712595e-06 0.0000000000000000 5.5218521283206812e-09 2.9057170281010514e-09 3.1807183260568195e-06 -0.0011099367803891261 1.6675248278680183e-09 -8.2902957311699705e-09 -5.4959114624858463e-09 0.0000000000000000 -31.542619574254449 -147.87907313389167 119.86135157363466 98.260374494724786 0.0000000000000000 0.0000000000000000 0.0000000000000000 0.0000000000000000 3.0538147956582873 3.1084086140397029 1.0545971878252194 1.0273649915048035 351.32321132983435 348.01468118666691 1.0269306456828895 
-28.802654222617797 -143.15263444740702 110.62966184227291 -28.802654222617782 -143.15263444740697 110.62966184227295 -13.632441639684691 -8.7280462388214880e-05 2.8003171239104343e-06 5.7299108290315396e-05 0.0000000000000000 5.1417582136448203e-09 2.6914783457510087e-09 3.4790135066131711e-06 -0.0028099853980513489 1.4250910705729410e-08 -1.1940356614439080e-08 -8.5877013885629869e-09 0.0000000000000000 -28.647655777685479 -142.96738158566356 112.12452093910819 112.69127588814607 0.0000000000000000 0.0000000000000000 0.0000000000000000 0.0000000000000000 3.0564281026870499 3.1136418207588821 1.0572165702368006 1.0283406133593718 331.64621117749368 331.55682350508016 1.0282069153916067 
-24.399500093294645 -200.78994032665230 71.595572432241298 -24.399500093294645 -200.78994032665230 71.595572432241298 -890.05838011048115 -5.5051114042217034e-05 3.5859577168101009e-05 -4.2731118895495081e-05 -856.85397565140272 4.5659251657337308e-09 5.1980920401373262e-09 4.9594557287591093e-06 0.0023562831571913518 1.7763062145486413e-09 -6.5373100745136733e-09 2.5434066775916749e-09 0.0034988774038105124 -24.261860196399997 -200.43215969199997 73.726546483199982 142.71380061529433 0.0000000000000000 0.0000000000000000 0.0000000000000000 0.0000000000000000 3.0476366506901340 3.0957973014385063 1.0481622992507587 1.0236539766775632 1780.7139318119132 1772.9750256334576 1.0237983902198904 
-24.294624207645139 -187.95844938996731 73.205138303663873 -24.294624207645139 -187.95844938996734 73.205138303663858 -899.69008252836261 4.3255503118746458e-05 3.7981739355114685e-06 2.4388952964497533e-05 -927.51955421581260 4.5522094843652994e-09 4.6400404352109348e-09 4.8984098643956031e-06 -4.5210762044701168e-05 2.7415717538346387e-09 7.8325424257042714e-09 2.6357328229158701e-09 0.0041851336951373502 -24.157397762799999 -187.63907770800003 75.309882232799993 165.73632395326644 0.0000000000000000 0.0000000000000000 0.0000000000000000 0.0000000000000000 3.0474123422735322 3.0953310079356515 1.0479201674074508 1.0236539766775621 1872.8891495885484 1869.2586426230232 1.0236783923968957 
-35.065229660035534 -195.75403541930754 79.596084578961467 -35.065229660035556 -195.75403541930766 79.596084578961424 -850.25859090318397 9.1125822172377020e-05 -1.3055873814408637e-05 2.7120928986081325e-06 0.0000000000000000 5.9607619812274137e-09 4.9790882250544408e-09 4.6560210575918859e-06 -0.0047445390105209911 -8.2860242986242361e-10 1.5157367767479592e-08 2.0943679268604658e-08 0.0000000000000000 -34.885542273181727 -195.41132893576267 81.596679120775832 139.46796289390394 0.0000000000000000 0.0000000000000000 0.0000000000000000 0.0000000000000000 3.0460806944099503 3.0926484655441873 1.0465692942914304 1.0224808859535992 1789.3196537427448 1795.1833323004246 1.0230190578288960 
-18.938712804196410 -194.86975955120056 79.409316815371781 -18.938712804196413 -194.86975955120042 79.409316815371781 -894.51459130398882 -5.2583653553339327e-06 0.00012131115428689827 8.2838506289639562e-05 0.0000000000000000 3.8517737471766011e-09 4.9406144453367773e-09 4.6631045806933002e-06 0.0023850393907278718 -2.0102539748420091e-09 -3.2430225689907370e-09 -2.0416961045985920e-09 0.0000000000000000 -18.822600960987238 -194.52970000168264 81.412954998504986 111.95285379220412 0.0000000000000000 0.0000000000000000 0.0000000000000000 0.0000000000000000 3.0476872525562997 3.0958923168978596 1.0482066849055409 1.0236539766775627 1888.0154180529205 1888.5977544707041 1.0238204341161490 
-22.795297726266273 -103.27379147182903 40.602634326237421 -22.795297726266277 -103.27379147182901 40.602634326237421 -440.81186331046229 -6.1719540261202335e-05 9.6856752532119595e-05 -9.3112703918707610e-05 -462.79401348574436 4.3561287632609683e-09 9.5717853088039796e-10 6.1349219553363818e-06 0.0022357379223621504 4.7051583382360689e-10 -4.6814592394379781e-10 8.8317617902814300e-10 0.0023020293297280753 -22.663982073999996 -103.20790935200000 43.238681550399988 69.202643319072678 0.0000000000000000 0.0000000000000000 0.0000000000000000 0.0000000000000000 3.0473060604436983 3.0951247387559282 1.0478202670551811 1.0236539766775623 1062.4045664700022 1085.0291513553911 1.0236309425961663 
-30.312611835003313 -110.86170222370147 44.414833879810288 -30.312611835003320 -110.86170222370150 44.414833879810296 -404.10465719343125 -1.0778094351615875e-05 9.4570317355821727e-05 -9.1078978942199667e-05 -372.69273247104326 5.3392267967966589e-09 1.2871714527573630e-09 5.9903370210889753e-06 0.0022514155095473280 2.4595053934212443e-10 -2.9987377823538351e-10 -1.0479311113647856e-10 0.0015938045003230105 -30.151660686400003 -110.77310694400001 46.988755992800002 74.715282964229786 0.0000000000000000 0.0000000000000000 0.0000000000000000 0.0000000000000000 3.0474529293116626 3.0954203071373168 1.0479689732307127 1.0236539766775623 954.90322064271288 950.74670685298940 1.0237036201217202 
-18.850916036139797 -103.63400869068731 47.484522042181808 -18.850916036139800 -103.63400869068731 47.484522042181815 -382.20602192109010 -5.3617653365877953e-05 5.4209830037661700e-05 -8.8571643359579860e-05 -387.13107699868760 3.8402932917014354e-09 9.7284422184706898e-10 5.8739132517970907e-06 0.0021274907949513163 -1.6688110431871671e-10 2.8089441746407946e-10 -4.5622770650937586e-12 0.0023057748212994621 -18.735150314000002 -103.56704831999998 50.008419303199993 79.719497061372692 0.0000000000000000 0.0000000000000000 0.0000000000000000 0.0000000000000000 3.0473146928909078 3.0951413751887675 1.0478282674165051 1.0236539766775621 939.33957657657254 940.04293474513736 1.0236348072277492 
-25.634387423549743 -98.539299382680937 48.474473337268911 -25.634387423549736 -98.539299382680895 48.474473337268904 -393.66104520585202 4.7522458424542308e-06 9.4268007240567425e-06 -0.00018765027735601558 0.0000000000000000 4.7274185399626134e-09 7.5128617216257975e-10 5.8363674635408822e-06 0.0017253913876501526 -3.8121506846787096e-10 7.5353017322920311e-10 -3.9522192786579882e-10 0.0000000000000000 -25.491879232152165 -98.487589184379729 50.982237960580505 72.292163684038698 0.0000000000000000 0.0000000000000000 0.0000000000000000 0.0000000000000000 3.0473838837721270 3.0952835084480483 1.0479012308683489 1.0236539766775627 977.33054969726777 996.35699029506566 1.0236705077065986 
-25.498478714300742 -104.25367542986642 107.21151737117592 -25.498478714300742 -104.25367542986638 107.21151737117590 -50.099448281254588 -2.1975914934193145e-05 0.00016760496544436911 -0.00014316726685101135 0.0000000000000000 4.9695451777939294e-06 1.1309911106956317e-06 6.4327397034221883e-06 0.0080441955287443821 1.0024960209935744e-08 3.0475246435343362e-08 1.0194413236650271e-08 0.0000000000000000 -25.283559732051039 -104.23282252886388 108.75695162467670 96.378087069502698 0.0000000000000000 0.0000000000000000 0.0000000000000000 0.0000000000000000 3.0616166424645761 3.1240267754959876 1.0624085836441315 1.0301762729594495 393.58778987091927 393.58780025024186 1.0307256387113890 
-26.124438758795065 -118.06173406434679 109.14064907303730 -26.124438758795087 -118.06173406434674 109.14064907303734 -0.63581978766555669 3.8806646585164941e-05 -0.00011068485343543075 -0.00010414282795504123 0.0000000000000000 4.4480650537496851e-06 -6.9515806586940906e-06 2.6400613519452456e-06 0.0052248033656811226 -1.5090834701775871e-09 -4.8343210618164920e-09 -3.9295336263246706e-08 0.0000000000000000 -25.913646985361510 -118.01095136745833 110.66456878241424 88.846747377876298 0.0000000000000000 0.0000000000000000 0.0000000000000000 0.0000000000000000 3.0753566764016824 3.1520849778185793 1.0767285537823068 1.0337108643437016 375.87291599816172 375.87341048673204 1.0376807274206989 
-36.606176380442761 -112.61922463699001 110.56393654244930 -36.606176380442768 -112.61922463699008 110.56393654244935 -131.70877049438062 -0.00050928224969594091 1.5534692686676946e-05 1.0190978826237498e-05 0.0000000000000000 6.1145885597935034e-06 -1.0685286908361769e-05 2.2995521342831082e-06 0.013954515592313817 -6.8048108293107294e-09 -3.0707694453118509e-08 -4.8047830702122617e-08 0.0000000000000000 -36.236867317722961 -112.72601430119678 112.03758904139967 95.996160021407249 0.0000000000000000 0.0000000000000000 0.0000000000000000 0.0000000000000000 3.0446711960730823 3.0895923785822528 1.0449155375403192 1.0237633851482535 509.13264677584823 509.13196712762158 1.0221719174126813 
-33.699764405168686 -105.03285600526230 104.08697208573156 -33.699764405168700 -105.03285600526227 104.08697208573162 -63.478818968262559 -0.00022652016161300357 0.00013410088963413563 0.00033967756213916170 0.0000000000000000 4.7502599927642387e-06 -5.3133241978694760e-06 7.1864641137352444e-06 0.025467822621014720 1.0230518406892393e-08 -1.4648257357773781e-08 9.3417787486555238e-08 0.0000000000000000 -33.380789828628046 -105.09637623893835 105.63342596379557 85.433794965156210 0.0000000000000000 0.0000000000000000 0.0000000000000000 0.0000000000000000 3.0629024542742695 3.1265538989984809 1.0636504089964165 1.0282712824113689 328.56006246904309 328.56013823394278 1.0313432869160080 
-112.70518961461048 -160.90186185179331 123.37715004617166 -112.70518961461046 -160.90186185179329 123.37715004617166 -134.50082328340366 -3.9704305991635128e-06 1.7280542346751243e-05 -1.9201589717112346e-05 -123.17027781463527 1.6114341819251088e-08 3.4633954315577142e-09 2.9955407199189206e-06 0.0017236382106100773 -3.7008026864209601e-10 9.3567823254971371e-10 -8.7321480468262644e-10 0.0011915858366543625 -112.21942232800005 -160.66347960400000 124.66427103520003 147.55923210393107 0.0000000000000000 0.0000000000000000 0.0000000000000000 0.0000000000000000 3.0476449589031005 3.0958345725985841 1.0481913978888924 1.0236539766775608 505.26087295252552 505.26086136942439 1.0238127974574651 
-99.968171630546138 -158.32535887031759 115.16387337445998 -99.968171630546166 -158.32535887031744 115.16387337445997 -132.92560809351846 -3.9632663398707017e-05 -1.9326470597839896e-05 -3.5960321476408246e-05 0.0000000000000000 1.4448628696261958e-08 3.3513220254466347e-09 3.3070448952621234e-06 0.0026392095172825718 3.1066313826981167e-09 -5.9607451155274955e-09 -3.4356773295028214e-10 0.0000000000000000 -99.532617471171264 -158.09468895943013 116.58484116745363 117.70414803503969 0.0000000000000000 0.0000000000000000 0.0000000000000000 0.0000000000000000 3.0473855777987873 3.0951545359570747 1.0477696793418110 1.0236417715000754 503.75170220046181 503.75170139260575 1.0236041158101086 
-104.79715400219334 -149.05790914057746 119.54214286896071 -104.79715400219339 -149.05790914057749 119.54214286896071 -123.66935374967703 -3.1490805354360801e-05 -3.2772667670021368e-06 8.0913267474106600e-05 0.0000000000000000 1.5080152918067746e-08 2.9482851993112291e-09 3.1409906826596057e-06 0.0038340710912971149 -4.7281702603758466e-10 -2.2877892179163819e-09 9.9303904348922474e-09 0.0000000000000000 -104.34256255272837 -148.85497981259945 120.89176065121424 119.29379793442074 0.0000000000000000 0.0000000000000000 0.0000000000000000 0.0000000000000000 3.0469055504602336 3.0942554602492560 1.0473511417251766 1.0239688870556081 496.17997596959100 496.17998157534015 1.0234011348548895 
-100.96991301774123 -162.52629945170267 123.27909652589541 -100.96991301774126 -162.52629945170256 123.27909652589548 -127.02550284607993 -1.0509668690757303e-05 -2.0584610102321224e-05 3.9790458326297518e-06 0.0000000000000000 1.4579635013167723e-08 3.5340352033674809e-09 2.9992595966810143e-06 0.0015665831651611344 5.9718220896161580e-10 5.5542050181598775e-10 -1.0292111872457979e-09 0.0000000000000000 -100.53040969477119 -162.28305471776312 124.56781543385799 141.51484144144280 0.0000000000000000 0.0000000000000000 0.0000000000000000 0.0000000000000000 3.0460518438650062 3.0925648085314497 1.0465142767801152 1.0231847838239703 479.30389107103122 479.30389599539598 1.0229923295304426 
-78.752442997236955 -149.00019455688681 87.577706033948473 -78.752442997236940 -149.00019455688678 87.577706033948502 -179.91733957862692 -0.00012674660898246180 6.0079806424462823e-05 -5.1528620813542411e-05 -179.77711900769694 1.1674073388534545e-08 2.9457862538162516e-09 4.3533028568631948e-06 -0.0069117967571033960 -2.4448253038960957e-08 -4.5755443621385531e-09 -8.3130378960353153e-09 -0.012466184918362570 -78.400527573600002 -148.79743798799998 89.448228916799977 108.06316173413846 0.0000000000000000 0.0000000000000000 0.0000000000000000 0.0000000000000000 3.0486462969034629 3.0977914484027904 1.0491465418465304 1.0236539766775625 620.41845136043491 620.42147303586057 1.0242802678978895 
-80.508200432387127 -162.77864440294883 85.874734538750630 -80.508200432387156 -162.77864440294886 85.874734538750616 -215.93648724168472 -1.2820121352335520e-05 -4.5918651779023585e-05 -1.3529528702329611e-05 -208.25681000032094 1.1903689048353705e-08 3.5450142543691494e-09 4.4178912874670573e-06 -0.0069791872182599773 -1.1812622295356127e-08 3.8991333586014692e-09 -5.4231909628432732e-09 -0.0070077870645265557 -80.149363288800018 -162.53464431600008 87.773009718400019 109.57810873427631 0.0000000000000000 0.0000000000000000 0.0000000000000000 0.0000000000000000 3.0493115596280216 3.0991603052177319 1.0498504936208906 1.0236539766775616 644.24082775443162 644.23792823031522 1.0246242668381780 
-84.670725673527386 -160.42137737339863 93.194200963959062 -84.670725673527343 -160.42137737339866 93.194200963959091 -186.86888488868951 -4.4960744240298672e-05 5.6289012481027441e-09 -0.00011156447769502438 0.0000000000000000 1.2448054767522088e-08 3.4424918748943156e-09 4.1402865784689880e-06 -0.0027572124876712911 9.5518808539407478e-10 3.4444562674994103e-09 -1.1922853979864660e-08 0.0000000000000000 -84.295478612813938 -160.18443337667750 94.973195224810283 106.11323630727971 0.0000000000000000 0.0000000000000000 0.0000000000000000 0.0000000000000000 3.0440871701304482 3.0887103239118070 1.0446249655729067 1.0219663346099634 567.59983645130148 567.59988087785723 1.0220656453928856 
-86.857880159421811 -151.60068983875394 90.816746687674694 -86.857880159421768 -151.60068983875399 90.816746687674652 -221.63119116698240 -0.00011903030158521442 1.8440123812305223e-05 -0.00015949617249604505 0.0000000000000000 1.2734088963850530e-08 3.0588846178236646e-09 4.2304560694539362e-06 -0.0046206578549561478 1.7902600472683599e-08 7.0733781885583158e-09 -2.8551550117251034e-08 0.0000000000000000 -86.474010682800568 -151.39014911596544 92.634484883397832 94.367740677547317 0.0000000000000000 0.0000000000000000 0.0000000000000000 0.0000000000000000 3.0422767577341308 3.0849925082954379 1.0427171185144315 1.0215583252363405 646.30457238404244 646.30439772233103 1.0211348923242933 
-26.163249654190366 -132.58451404761536 137.58910723639406 -26.163249654190370 -132.58451404761536 137.58910723639406 -49.924055106251693 4.4815137607401077e-05 -8.5142674157510258e-05 0.00046747948164290359 -54.622784251785824 4.7965812433048419e-09 2.2318848158509041e-09 2.4565251575126013e-06 -0.0062729882497008999 -4.0681306765634122e-09 1.0888061614467756e-08 -6.7969597193451406e-08 -0.0055248905502688263 -26.018656529999991 -132.43089511199997 138.64462455200004 49.421240865332216 0.0000000000000000 0.0000000000000000 0.0000000000000000 0.0000000000000000 3.0463048549376595 3.0931438131933140 1.0468427127346724 1.0252243000400012 319.81333867866164 319.88911708589370 1.0231568278783756 
-32.665674538633510 -134.11501355356418 136.53017608365428 -32.665674538633532 -134.11501355356415 136.53017608365420 -47.940261569768126 -6.4793970134131273e-05 -1.0594083372952340e-05 4.4586822660374050e-05 -2.4773933400563446 5.6469534465142254e-09 2.2984381897739325e-09 2.4966871374765276e-06 -0.0028212792189856316 1.6198854638417846e-08 1.2476403421404969e-08 -2.4781772703696622e-08 -0.040766274744916370 -32.495446914399992 -133.95681332000001 137.60295016000006 48.530522504776933 0.0000000000000000 0.0000000000000000 0.0000000000000000 0.0000000000000000 3.0534480516216025 3.1074441496081655 1.0539932679975836 1.0269639183083767 378.23862128332138 378.26626960271017 1.0266302247585024 
-28.572294153169899 -136.60442899628026 139.28209686474315 -28.572294153169892 -136.60442899628021 139.28209686474315 -63.970236049749744 5.7835729943703718e-05 0.00011622212878184500 3.3298185485156923e-05 -83.318666641230422 5.1116304244924748e-09 2.4067151882523059e-09 2.3923152987492817e-06 0.00016870355882363483 -1.3979260432233441e-08 -9.5638005775540006e-09 -7.1985729516090822e-09 0.0092849349726887194 -28.418203856399998 -136.43877710800004 140.31002455199999 44.353383947079159 0.0000000000000000 0.0000000000000000 0.0000000000000000 0.0000000000000000 3.0465535514048971 3.0935747755880247 1.0470225109904681 1.0240539008663556 372.70829808831598 372.21556190734219 1.0232425454646745 
-26.915925889922139 -129.64656178449806 142.87902361996530 -26.915925889922153 -129.64656178449800 142.87902361996524 -113.57672075621969 1.5403069446757157e-05 7.0800196998223479e-05 1.5079889644109360e-05 0.0000000000000000 4.8950153930249485e-09 2.1041111908370880e-09 2.2558950090179053e-06 0.0018282129009090089 8.4895407508652560e-09 1.9002210161614600e-09 8.1591859840094029e-09 0.0000000000000000 -26.768365491316434 -129.50173712462359 143.84833436668455 49.139845408488213 0.0000000000000000 0.0000000000000000 0.0000000000000000 0.0000000000000000 3.0511548989179427 3.1029502049615569 1.0517965679109300 1.0249874445140650 556.86624029901441 556.89959689459454 1.0255683011944245 
-40.268963986222253 -65.428669983903077 153.15147421768987 -40.268963986222261 -65.428669983903077 153.15147421768989 -210.61315352051759 0.00016112854603319676 1.6825091217191190e-06 -0.00024081471751871437 -127.85333071323085 6.6412945837202039e-09 -6.8867381242121450e-10 1.8662927523394046e-06 -0.0035492710351731427 -1.8852169042047126e-08 -6.3488719060257436e-09 3.6535801463809708e-08 -0.024251774285004021 -40.068761925200000 -65.476070995999990 153.95338104800004 156.95717166164070 0.0000000000000000 0.0000000000000000 0.0000000000000000 0.0000000000000000 3.0575187532329884 3.1157934736786732 1.0582766971623982 1.0246563414035048 619.07810227148843 619.07810231758674 1.0287431622837588 
-52.675871700628008 -59.590900857653928 148.38421858301419 -52.675871700628015 -59.590900857653914 148.38421858301419 -239.87612016310416 0.00018073372530655129 0.00014804497276284955 -0.00052940796744750120 -157.53436280462162 8.2638442061577777e-09 -9.4255692140166047e-10 2.0470999948507540e-06 0.018251890525479569 6.4769555260009790e-08 1.4726950521952071e-08 -7.2359371906771814e-08 0.033763506595174846 -52.426757905599978 -59.655776269200025 149.26381449600007 118.05125250056595 0.0000000000000000 0.0000000000000000 0.0000000000000000 0.0000000000000000 3.0520022778419293 3.1046365962306028 1.0526360348076658 1.0243018637840249 697.13562592592928 697.13561088492929 1.0259770248307751 
-35.353742051228593 -65.984031538759155 144.04935249941889 -35.353742051228600 -65.984031538759155 144.04935249941894 -368.78804472655912 -4.7663598855647987e-05 8.1189012202802176e-05 -0.00027351183731359670 -398.68394363750758 5.9984938821644462e-09 -6.6452343627787503e-10 2.2115080557938431e-06 -0.0023275063059844687 -2.0363529729713540e-09 2.8417290977962887e-09 6.9416302626978215e-10 -0.0078908432920979498 -35.172917262399999 -66.029770167599992 144.99959110400002 155.12084301790807 0.0000000000000000 0.0000000000000000 0.0000000000000000 0.0000000000000000 3.0416671623603331 3.0837942583326212 1.0421281888995606 1.0219114897851616 1030.7100956156626 1030.7100966266075 1.0208340041518800 
-50.653971104049894 -66.546071934856116 141.20691043403957 -50.653971104049880 -66.546071934856158 141.20691043403954 -378.41063774122705 0.00010226218923688206 0.00038447311244830450 -0.00075296584387113950 0.0000000000000000 7.9994247198511575e-09 -6.4007821265477095e-10 2.3193130753718094e-06 0.0085555762249513532 3.8552495037831889e-08 9.4116775928417897e-08 -4.2229788544224227e-08 0.0000000000000000 -50.412828244765279 -66.590128188430739 142.20347059834828 136.07757377940416 0.0000000000000000 0.0000000000000000 0.0000000000000000 0.0000000000000000 3.0277697614828383 3.0552805168423594 1.0275095777859502 1.0176579456391222 901.69815940850106 901.69816169920875 1.0136638106665858 
-94.975590755144452 -158.94928869395176 75.560506738125312 -94.975590755144452 -158.94928869395173 75.560506738125326 -355.77836872832415 -9.8073982383971501e-05 2.5521161385824008e-05 -9.6293213095307548e-05 -368.10053663152542 1.3795705869346087e-08 3.3784704756012478e-09 4.8090780335741101e-06 -0.00079939414762182387 5.9563855608418201e-09 -1.1223433377317094e-08 9.5241804215132540e-10 -0.0042441922531210683 -94.559718839999974 -158.71675115199997 77.626866652000004 109.98746742214213 0.0000000000000000 0.0000000000000000 0.0000000000000000 0.0000000000000000 3.0472065697344926 3.0949229268186516 1.0477179435362025 1.0236539766775610 922.20162534702604 922.20031818185259 1.0235810723213201 
-90.078706411209012 -158.69819111875705 80.451702757513175 -90.078706411209012 -158.69819111875705 80.451702757513189 -268.07308448403506 -0.00017013017330861239 0.00020532244406365767 -7.2298168107595909e-05 -224.66686174180174 1.3155305303436116e-08 3.3675464916615989e-09 4.6235701041119634e-06 -0.0024861770911627492 2.6130323099350793e-09 -6.9497763330726380e-09 8.4909480376938119e-10 -0.0014699726093866301 -89.682139475999989 -158.46640519600001 82.438353807199988 112.88451412247700 0.0000000000000000 0.0000000000000000 0.0000000000000000 0.0000000000000000 3.0472998711616133 3.0950982564274079 1.0477999205385193 1.0236539766775621 714.59031451198109 714.58911977750779 1.0236201204817801 
-103.15799599498520 -155.16524928850436 84.691427195880522 -103.15799599498527 -155.16524928850424 84.691427195880522 -345.63998334171657 -1.6064309960332185e-05 8.2194998844310451e-05 -6.5458269097337941e-05 0.0000000000000000 1.4865784228601520e-08 3.2138904593193023e-09 4.4627704727240314e-06 -0.0015619742573206765 6.4504207782809631e-10 5.9906485592185021e-09 2.8415361800663547e-08 0.0000000000000000 -102.70986659571734 -154.94403864466588 86.608986019839278 111.02505284862640 0.0000000000000000 0.0000000000000000 0.0000000000000000 0.0000000000000000 3.0473100127443380 3.0951237956841973 1.0478152220607446 1.0228592247986634 919.16745030350728 919.16667630753739 1.0236284623906302 
-100.84607981232169 -167.43184194555570 81.703829245450649 -100.84607981232163 -167.43184194555576 81.703829245450649 -271.54514773269062 -0.00011085336180041067 9.6663442781038308e-05 -0.00018236607794844058 0.0000000000000000 1.4563433473058217e-08 3.7473726066661328e-09 4.5760808160544286e-06 -0.00057923904722738504 1.3806139416943747e-09 3.2564851380785592e-09 -8.9267552578253371e-09 0.0000000000000000 -100.40706467681501 -167.17391327890167 83.670075146830683 105.53983917324770 0.0000000000000000 0.0000000000000000 0.0000000000000000 0.0000000000000000 3.0477322833687031 3.0959975227793564 1.0482669454668001 1.0234046576718954 706.20843085082515 706.20910137124997 1.0238487559152885 
-115.11934685915934 -99.861519474160318 94.819760363427875 -115.11934685915934 -99.861519474160318 94.819760363427875 -209.74610845393181 -1.4233969771527526e-06 -2.0165142416499645e-05 4.1448093460621282e-05 -198.74768562973642 1.6430061380856564e-08 8.0878057029387662e-10 4.0786341388709957e-06 0.0023521473866300879 1.7694636696052897e-09 2.1619744239756322e-09 9.2718415682022072e-09 0.0026183003263963093 -114.62406224400000 -99.805851428000011 96.572263865600007 85.211636250682801 0.0000000000000000 0.0000000000000000 0.0000000000000000 0.0000000000000000 3.0477862781749114 3.0960877273261156 1.0483030765217174 1.0233852077543737 630.38115986818332 631.30841790236434 1.0238661895669752 
-111.56884961108854 -91.127165170120236 98.529215762435499 -111.56884961108857 -91.127165170120207 98.529215762435499 -214.99348229180049 2.2906775674865326e-05 2.0807890103095775e-05 9.0169687982063134e-05 -235.21636921389791 1.5965739577628035e-08 4.2893058549431373e-10 3.9379459808586148e-06 0.0010585623432944264 3.3262076212609355e-09 6.0221174345178481e-10 2.3901911394998028e-08 -0.0083167171250124704 -111.08756211600000 -91.097641973600034 100.22126851279998 99.535403830130534 0.0000000000000000 0.0000000000000000 0.0000000000000000 0.0000000000000000 3.0476163889750869 3.0957024484981415 1.0480873689470021 1.0236603407391052 669.35055649925209 669.03347450905869 1.0237606910496544 
-113.39282620733701 -97.705017801931149 106.83003194569183 -113.39282620733705 -97.705017801931177 106.83003194569186 -196.31157169815535 2.1370709395036722e-05 9.0550768770853487e-05 -6.1268246596223784e-05 -238.67794921775160 1.6204270827935296e-08 7.1499403619945657e-10 3.6231217057647309e-06 0.0054328523314005591 2.7801774160559159e-09 1.3005485268841980e-08 -9.5080725082859970e-09 0.0038669696266316073 -112.90434805199999 -97.655804887999992 108.38681131359999 128.09762094244454 0.0000000000000000 0.0000000000000000 0.0000000000000000 0.0000000000000000 3.0468929374527600 3.0942943215943637 1.0474031220230740 1.0240298440108717 673.12616466843406 673.03945129409487 1.0234292231599853 
-107.62038777950936 -103.90898477349195 98.863560879778149 -107.62038777950933 -103.90898477349188 98.863560879778120 -213.85348423863434 -3.1206569404526546e-05 -4.9114755405129580e-05 5.4480768706123102e-05 0.0000000000000000 1.5449356197128061e-08 9.8481020560647892e-10 3.9252652994647974e-06 0.0055086862708330136 -1.4249751939878988e-08 7.2096629212241523e-09 -1.2840698155515517e-08 0.0000000000000000 -107.15466629968294 -103.84120130723400 100.55016500991876 102.24201981555134 0.0000000000000000 0.0000000000000000 0.0000000000000000 0.0000000000000000 3.0450847054702863 3.0906238622273761 1.0455403901397846 1.0229840661221665 621.67916004260439 621.97180227986451 1.0225151360595417 
-27.091206871431755 -115.42368766191029 101.71973815144997 -27.091206871431748 -115.42368766191024 101.71973815144990 -12.027160187039852 8.9872035601274908e-05 -4.9416251991815031e-05 -5.8387702663653833e-05 0.0000000000000000 4.4520791400146802e-06 -7.8324505446400436e-06 5.0645775474863372e-06 0.0087588844410207266 4.0299874746743250e-09 -2.4972428485879679e-08 4.1119512235183314e-08 0.0000000000000000 -26.889884864405381 -115.37486796036181 103.37575244326078 96.382960025775517 0.0000000000000000 0.0000000000000000 0.0000000000000000 0.0000000000000000 3.0711814237309665 3.1435535547810542 1.0723718927797323 1.0330409712254001 380.07711752593906 380.07707887155692 1.0355543724472687 
-110.04360870812363 -103.68889803689599 151.36645367314370 -110.04360870812364 -103.68889803689602 151.36645367314367 -74.096616436028157 -1.6669587385543473e-05 -3.4285674928461760e-05 -3.6464140499608809e-05 -76.831428587471464 1.5766268193773136e-08 9.7522870334820766e-10 1.9339930465989141e-06 -0.00041226069315952014 5.3342792050340716e-10 3.8279839968830928e-09 -3.1417089087343944e-09 -0.0018085512052092190 -109.56833416800004 -103.62177336400003 152.19744990400002 70.302883591683823 0.0000000000000000 0.0000000000000000 0.0000000000000000 0.0000000000000000 3.0444927166068037 3.0894126902669021 1.0449212107091426 1.0236972846771368 387.16738273463665 387.16657806614751 1.0222148668080084 