# For a description of the Tecplot format see the Tecplot User's guide.
#
Variables=x,y,z,s_u,s_v,s_w,s_p,mono_f_vel_u,mono_f_vel_v,mono_f_vel_w,const,u_nu,v_nu,w_nu,p_nu,x_nu,y_nu,z_nu,const,u_ref,v_ref,w_ref,vol_ref,x_ref,y_ref,z_ref,const,I1,I2,I3,J,p1,p2,p3
Zone f=fepoint, n=1339, e=6475, et=brick, c=black
-58.7697 -70.4613 176.196 -58.769685718128898 -70.461325361157478 176.19553806991760 121.77081538335750 -1.7642265820519873e-07 2.7699859209625906e-06 -4.8036658466140365e-06 121.27970770075810 -3.5688119126575652e-13 2.0206059048177846e-14 -1.6221046728048805e-10 0.0024148056921510907 2.0947539894220112e-11 -2.9509505097408267e-11 5.0119010283148442e-11 0.0024257810494217520 -58.668039002000000 -70.473359259200009 176.35421013599998 215.13583165143561 0.0000000000000000 0.0000000000000000 0.0000000000000000 0.0000000000000000 3.0155915285443866 3.0312407764526910 1.0156493252527066 1.0087035024280568 152.66092259175588 154.79395473106334 1.0077974583706997 
-65.074019060192470 -76.409279237552070 183.91263883750432 -65.074019060192455 -76.409279237552056 183.91263883750432 134.07648863773349 -3.0271983979408482e-06 1.1810563720408849e-05 -1.4039157619424217e-05 133.23262806018801 -3.9232506132691474e-13 7.5772721430666934e-15 -1.1435430380402070e-10 0.0023623993545448287 4.0911007556423024e-11 -4.8633469895648908e-11 6.1904839080449359e-11 0.0023731356680892594 -64.963123215600007 -76.414687385200040 184.02450960799996 253.42820447565578 0.0000000000000000 0.0000000000000000 0.0000000000000000 0.0000000000000000 3.0135852295011096 3.0272027024592836 1.0136175028079992 1.0087035024280577 183.40090632384369 183.08940027130441 1.0067931306282725 
-69.781394674783925 -71.573351085293311 177.08338467557175 -69.781394674783911 -71.573351085293311 177.08338467557175 123.09793296177571 4.5363263317640237e-06 3.5372560266063586e-06 -4.1377327523618970e-06 126.22635763343008 -4.0994985184283905e-13 9.2981178312356876e-15 -1.5668844000060744e-10 0.0024368332319757899 2.0712369360202634e-11 -2.8393925630192980e-11 5.6227679655923982e-11 0.0024414674313345498 -69.663592608799988 -71.584146237200002 177.23667228800005 218.29881668600640 0.0000000000000000 0.0000000000000000 0.0000000000000000 0.0000000000000000 3.0128441702848288 3.0257254676775180 1.0128813480168923 1.0087035024280560 165.29447535418333 165.69081929531919 1.0064292792594498 
-57.264443647892470 -87.733981379702129 171.48359049482309 -57.264443647892456 -87.733981379702087 171.48359049482312 111.35213970681291 5.0079709989756229e-06 -8.0359618717733335e-06 -2.4015660604884688e-05 0.0000000000000000 -3.4763858458575214e-13 -9.4368957093138290e-15 -1.9142620821810397e-10 0.0024207120035658076 -8.7637941177699286e-12 -3.5112375303171010e-11 7.8619359970520073e-11 0.0000000000000000 -57.165005282198301 -87.726774323660578 171.67083873969227 259.76550921814646 0.0000000000000000 0.0000000000000000 0.0000000000000000 0.0000000000000000 3.0256244492660191 3.0513657598791597 1.0257413566829578 1.0117057597008714 101.36545683832902 101.91649083653373 1.0127847527242020 
-89.044407689660062 -83.380279608436837 116.59278000102893 -89.044407689660090 -83.380279608436865 116.59278000102901 100.56652956308879 9.4209585731905386e-07 -2.4670521068460985e-05 5.0816368045389889e-06 0.0000000000000000 -5.0798254491724038e-13 -2.7755575615628914e-16 -5.3171644864846712e-10 0.0031776099394712053 -1.7043041625195982e-10 9.9726544891569576e-11 1.8493959880185311e-10 0.0000000000000000 -88.898344731952406 -83.377922378373768 117.11292023788836 283.91631954144174 0.0000000000000000 0.0000000000000000 0.0000000000000000 0.0000000000000000 3.0249672151309706 3.0500870873358257 1.0251200690747595 1.0114793907865871 84.737386881741202 84.736495093571946 1.0124802542169216 
-97.754534429317516 -66.885683632317864 107.64575082201010 -97.754534429317530 -66.885683632317864 107.64575082201010 126.34444534749493 3.3848015115783713e-06 9.9932254376160019e-07 1.5268680556616138e-05 127.74534776290585 -5.4981019736999315e-13 1.9803603201751230e-14 -5.8718296891413502e-10 0.0033267781357720623 5.2996238072867444e-12 -4.1911475083766531e-11 3.0053495644131046e-10 0.0033420015082033720 -97.595692787999965 -66.901700632800015 108.22015140479995 322.25788568967050 0.0000000000000000 0.0000000000000000 0.0000000000000000 0.0000000000000000 3.0140491025603278 3.0281266842896026 1.0140775861184623 1.0087035024280568 167.69941263674818 167.68143255701713 1.0070205567839599 
-79.795025972992221 -67.516135464349588 108.04348634224446 -79.795025972992278 -67.516135464349631 108.04348634224442 119.78026414398714 5.4064100690727275e-06 -1.1194811641791251e-06 1.0531400637566299e-05 0.0000000000000000 -4.6500303607643890e-13 1.0880185641326534e-14 -5.8471405495197349e-10 0.0033591510117026127 -3.6182650585204088e-11 5.2661064930748087e-11 2.8273648569443627e-10 0.0000000000000000 -79.662532843379708 -67.531450170133141 108.61547480962874 295.38956150422752 0.0000000000000000 0.0000000000000000 0.0000000000000000 0.0000000000000000 3.0216741667259992 3.0434872593944537 1.0218133469648254 1.0106674807790874 128.02820521747620 128.03085272249533 1.0108430503003236 
-94.632048503902851 -81.840145138939846 108.05438585048401 -94.632048503902809 -81.840145138939818 108.05438585048400 121.19751752258055 1.3651106872117327e-05 -1.6577109591405394e-06 2.4235153150997514e-05 0.0000000000000000 -5.3804183330896649e-13 -3.4833247397614286e-15 -5.8464633134747136e-10 0.0033434819094702701 -4.9707251884042990e-11 -1.1107042198881113e-11 2.3205363267150976e-10 0.0000000000000000 -94.477787882002133 -81.839503548705352 108.62630821647583 293.80807890400462 0.0000000000000000 0.0000000000000000 0.0000000000000000 0.0000000000000000 3.0220286292749710 3.0441886093073900 1.0221601828754421 1.0107978001949791 127.30070657296257 127.30816122578882 1.0110137895785021 
-47.301171999155514 -126.03986924214696 138.25848596842684 -47.301171999155493 -126.03986924214689 138.25848596842673 21.174594129938111 -1.8280394404406037e-06 -5.2531952540875441e-06 -7.7456376504539986e-06 0.0000000000000000 8.9819398462478370e-07 -2.3241618866309085e-07 3.5933089812345877e-06 0.0028879520936493696 5.9420915688792512e-11 3.4986661621280808e-12 3.1177202356262068e-10 0.0000000000000000 -47.292355390977058 -125.96433165720771 138.67232254046354 244.31333887135355 0.0000000000000000 0.0000000000000000 0.0000000000000000 0.0000000000000000 3.0054962875762112 3.0109005909643405 1.0054044906315018 1.0025489150433462 27.923967770717589 27.925014458134800 1.0026982615868372 
-34.232104078537787 -140.48871321584846 138.83365823079302 -34.232104078537766 -140.48871321584841 138.83365823079296 21.035009960376030 -9.0211970394941049e-06 -8.0709978579983832e-07 -1.5189912828712773e-06 0.0000000000000000 4.2537154592474260e-07 2.4669711604617606e-08 1.1847043788375668e-06 0.0026320442465973476 -1.0852978828600623e-11 5.0612044559046014e-11 2.6617443348044924e-10 0.0000000000000000 -34.196989160350306 -140.43319657724166 139.21506628885933 210.16870282748488 0.0000000000000000 0.0000000000000000 0.0000000000000000 0.0000000000000000 3.0080732301067927 3.0160682148899367 1.0079949816348099 1.0039627730785774 23.043210400267803 23.040000827389399 1.0039908171388989 
-31.009148962484044 -127.69285543598686 142.36480021696707 -31.009148962484034 -127.69285543598687 142.36480021696698 30.099175646960749 -7.8245265808428593e-06 -5.5744905905334924e-06 -5.0994052072299048e-06 0.0000000000000000 -2.1341262090857069e-13 -6.5711325270001453e-14 -3.7193359503362444e-10 0.0025165639094400232 1.5412219389982276e-10 9.2768754225052808e-12 1.4254029543007183e-10 0.0000000000000000 -30.948229910445860 -127.64113600963313 142.72864290474456 229.21992526850030 0.0000000000000000 0.0000000000000000 0.0000000000000000 0.0000000000000000 3.0115077456451007 3.0229765128255472 1.0114687127768494 1.0053620806278725 25.933128721738711 25.945145806793590 1.0057160035508472 
-48.415642122741076 -130.98729383926985 146.50535999415339 -48.415642122741048 -130.98729383926991 146.50535999415339 16.854624429130265 -8.2018037973130482e-06 -1.8913183507945130e-05 1.5341853860365704e-05 0.0000000000000000 8.7480721393537529e-07 -3.6874561484786837e-07 3.0734771786687604e-06 0.0025787468465831931 2.6339384587727173e-11 -2.0029665538348433e-10 4.5534225857197404e-10 0.0000000000000000 -48.406431667502837 -130.90513559487593 146.85896726379221 225.63426853136377 0.0000000000000000 0.0000000000000000 0.0000000000000000 0.0000000000000000 3.0026419291544859 3.0051970672606099 1.0025553180605042 1.0017990435398270 25.591520163210348 25.579153703876010 1.0012775127189082 
-53.104648959301315 -85.024428891761545 77.101097796935747 -53.104648959301343 -85.024428891761545 77.101097796935790 113.45872189781116 1.3390214405026977e-05 -6.6409436756649192e-05 0.00016447113528067435 0.0000000000000000 1.3967464489903957e-07 2.6187112081583456e-06 1.0481778839338707e-06 0.0053795345116627868 1.0208833114156811e-09 7.7058005227721588e-09 -1.6511032645182190e-09 0.0000000000000000 -53.009977022357148 -84.940192361847963 77.707205907375524 356.07450292316213 0.0000000000000000 0.0000000000000000 0.0000000000000000 0.0000000000000000 3.0175916349879888 3.0350625866049792 1.0174709199174534 1.0089369135632762 94.529659810376018 94.528087323706416 1.0086699706810773 
-40.388329922816787 -85.683355885568716 66.734321826188165 -40.388329922816787 -85.683355885568730 66.734321826188136 192.57295691667645 3.5668101073029754e-06 -2.1025298926330384e-05 6.7774585010380096e-05 0.0000000000000000 -3.5679637161455113e-07 2.3465034881084232e-07 -1.1325722364348813e-07 0.0045416640460093543 -1.6201142589991285e-10 2.2938030634979547e-10 -8.8529483253740988e-10 0.0000000000000000 -40.313282635619565 -85.652866469445740 67.489144002613742 334.72004880612383 0.0000000000000000 0.0000000000000000 0.0000000000000000 0.0000000000000000 3.0240815709469762 3.0481496702528594 1.0240679588600237 1.0107935246090132 249.35559019703851 249.35563421069676 1.0119562732728864 
-43.047308663550268 -94.148392168883532 82.646970697778897 -43.047308663550240 -94.148392168883532 82.646970697778883 86.852917152286082 -7.5828605264097109e-05 -6.5469827597826135e-06 3.3457900741967452e-05 0.0000000000000000 5.0687966963928722e-07 5.9242455742580946e-07 2.4088207883915886e-06 0.0051815537341060296 2.2804372519545645e-09 9.2838356297535490e-11 3.6532389681266723e-09 0.0000000000000000 -42.930125987095458 -94.071309017270835 83.274511392489799 283.94561953274422 0.0000000000000000 0.0000000000000000 0.0000000000000000 0.0000000000000000 3.0153961345127036 3.0307300833949409 1.0153338817002366 1.0087417263414862 76.429032752033905 76.430390228760629 1.0076310773979431 
-45.027821243883430 -98.989462276879891 67.195845849444524 -45.027821243883416 -98.989462276879877 67.195845849444552 144.79880471707719 -3.6234864154026120e-05 -6.1559210078123190e-05 0.00010847442019933646 0.0000000000000000 -2.8285707109887426e-13 -1.7347234759768071e-14 -8.3796303229632951e-10 0.0050350682318433459 -9.1603608320414695e-10 2.2660273823843214e-09 -3.5469844100876858e-09 0.0000000000000000 -44.946335306532468 -98.969717126470769 68.015559797458934 339.42980011114588 0.0000000000000000 0.0000000000000000 0.0000000000000000 0.0000000000000000 3.0178092776467058 3.0355838834444175 1.0177745660230462 1.0093432199282217 175.42104679465049 175.42127100788792 1.0088419169879073 
-35.780719941695367 -100.87724075125099 74.636346272596782 -35.780719941695345 -100.87724075125104 74.636346272596754 131.44817705638815 -4.1142928847326372e-05 -1.6943373434154097e-05 4.0051796577380954e-05 0.0000000000000000 5.5151251252262219e-07 -4.3977416827644738e-09 6.3449937570385736e-07 0.0050812531152469179 1.7464414294389718e-09 -4.4548340433102643e-10 3.4939520450813307e-10 0.0000000000000000 -35.672109309640206 -100.83293553867907 75.360366609178811 338.44965823895870 0.0000000000000000 0.0000000000000000 0.0000000000000000 0.0000000000000000 3.0267518823741990 3.0535498951814430 1.0267979769626523 1.0110731430504316 132.36628136462954 132.36491193365052 1.0133088514837885 
-49.063199326390922 -112.02634443685180 64.547366989387186 -49.063199326390915 -112.02634443685180 64.547366989387200 113.95913271454870 -8.0702527197828362e-05 -2.2968101967838084e-05 6.3126260592839657e-05 75.821467525594940 -3.0549174301341959e-13 -4.0564773762241651e-14 -8.5437434904633857e-10 0.0052808356681876409 9.2134549581807058e-10 9.5568289569357577e-10 -1.3861684557872100e-09 0.0062816265013217422 -48.975793059600008 -111.99207679200002 65.383142959360015 326.57209562220959 0.0000000000000000 0.0000000000000000 0.0000000000000000 0.0000000000000000 3.0175905585382661 3.0352665989986636 1.0176760392583422 1.0088478248898529 113.79482030564238 113.79510824035857 1.0087912183502856 
-25.292068343749165 -110.51445480907222 66.646611515368122 -25.292068343749175 -110.51445480907216 66.646611515368079 169.98902060170360 -1.3518594840053814e-05 -1.0361554500876996e-05 4.5339120764442148e-05 0.0000000000000000 -1.8269413759597342e-13 -3.6262659541819176e-14 -8.4135831635023816e-10 0.0046222893199411533 1.5039107192569737e-10 -2.2163011239050633e-10 -2.0013489728354736e-11 0.0000000000000000 -25.239536857883341 -110.48187134057846 67.469656361758609 349.35568362690350 0.0000000000000000 0.0000000000000000 0.0000000000000000 0.0000000000000000 3.0210285553911507 3.0421366797804401 1.0211081823005632 1.0100542386092657 223.34004634261777 223.34034475345948 1.0104965855219268 
-44.156059718108132 -111.30206239209764 75.684166534406245 -44.156059718108125 -111.30206239209761 75.684166534406287 88.730511160025983 -4.1767677266125182e-05 3.6463277109636290e-05 7.5633183741815742e-06 0.0000000000000000 -2.8038682486908328e-13 -4.0509262611010406e-14 -7.8533890501830683e-10 0.0051844740816984662 6.0333410220865287e-10 -9.0362752678241814e-10 2.4873377232315254e-09 0.0000000000000000 -44.075852747763513 -111.26860156453857 76.452402029906395 268.59635586333832 0.0000000000000000 0.0000000000000000 0.0000000000000000 0.0000000000000000 3.0133194681166153 3.0265336311038591 1.0132139440752150 1.0088503959819506 100.47620657565044 100.47516892804775 1.0065884522891402 
-58.289212595095869 -106.76221759434952 104.77558916065063 -58.289212595095876 -106.76221759434959 104.77558916065070 15.782774383540294 -1.8476912719514890e-05 -3.2016073543421292e-05 -1.0982407821814087e-05 0.0000000000000000 2.0454921417487140e-07 1.1966220212797844e-06 3.6643176234849555e-06 0.0040163921560264770 -2.7999639605373358e-10 -3.7505097457306330e-10 1.1108665008010271e-09 0.0000000000000000 -58.254647241440821 -106.62760994408018 105.33920711112118 241.62621693813244 0.0000000000000000 0.0000000000000000 0.0000000000000000 0.0000000000000000 3.0006086025965724 3.0011569898880261 1.0005485550687248 1.0011414811725168 23.952890337899401 23.950122827681188 1.0002725977069107 
-64.390387544710265 -90.238517936914207 96.134248689995317 -64.390387544710237 -90.238517936914164 96.134248689995289 52.617270690013719 2.4586079748721635e-05 -7.3556892890706419e-06 -3.4303922464844494e-05 0.0000000000000000 -3.3517679476642747e-07 7.6903236964266874e-07 2.4900448680768488e-06 0.0039781667142511209 1.0350976833054350e-10 4.8604612776315082e-10 -1.8453670421767331e-09 0.0000000000000000 -64.370648572599308 -90.090304358695661 96.688480747766732 239.98138923263960 0.0000000000000000 0.0000000000000000 0.0000000000000000 0.0000000000000000 3.0080507655746733 3.0159672009151706 1.0079164349772292 1.0063080892678511 52.198621339619102 52.203830797853378 1.0039374736806368 
-75.923617676592499 -99.825789274066395 100.78081514209786 -75.923617676592542 -99.825789274066352 100.78081514209782 43.239526360722749 3.6156951992478410e-05 -4.5579530036985092e-05 1.7551974639218390e-05 0.0000000000000000 -2.8905843281473584e-07 9.8923304562567879e-07 2.4997711220914091e-06 0.0040757653294149531 1.9371022102230078e-10 -2.4746510726755004e-10 1.0914230283062189e-09 0.0000000000000000 -75.913673002404863 -99.702254402691466 101.32606574872912 288.13617662859207 0.0000000000000000 0.0000000000000000 0.0000000000000000 0.0000000000000000 3.0050337514459646 3.0100315631934236 1.0049976753436496 1.0043866472797214 44.016133774257675 43.999444416354642 1.0025026374727402 
-55.197882159630275 -93.724309197714106 102.77635214497990 -55.197882159630289 -93.724309197714149 102.77635214497984 47.362597682898588 -1.7585811526528315e-07 -1.9100310762304389e-05 -1.8961872255116287e-05 0.0000000000000000 -3.7942357242508088e-08 6.9598985133802387e-07 3.4577487415495876e-06 0.0039671688219626846 5.4241421051614847e-11 1.8889598580398263e-10 5.2236738653722910e-10 0.0000000000000000 -55.164710769962618 -93.586508083202432 103.32606452766413 222.68531933077850 0.0000000000000000 0.0000000000000000 0.0000000000000000 0.0000000000000000 3.0080370031602111 3.0160848561850084 1.0080476967884273 1.0045897547503300 53.821397097983670 53.829059791273117 1.0040165722954024 
-45.845463327611199 -176.00133816494031 155.36414851297303 -45.845463327611220 -176.00133816494045 155.36414851297295 14.079267570112307 2.2552526196405581e-05 1.5573955273800162e-05 -4.5202323877160617e-05 0.0000000000000000 -2.8589630662878562e-13 -1.1694811785645243e-13 -2.9135849288763893e-10 0.0024465868776465780 -7.0601047763657352e-11 -1.9482428641764911e-10 1.9395742513231258e-10 0.0000000000000000 -45.762777822239421 -175.89580528354742 155.64915507299250 248.91339099022119 0.0000000000000000 0.0000000000000000 0.0000000000000000 0.0000000000000000 3.0066685107947677 3.0133451173809034 1.0066766146698061 1.0048588187697036 26.347157383895588 26.319556004347426 1.0033267134073964 
-51.526515665819403 -185.67912491215418 167.94500549630695 -51.526515665819382 -185.67912491215421 167.94500549630695 24.770345147194220 -2.0004762216896349e-06 5.9436059563682376e-06 4.8268290738822517e-06 29.632329927467861 -3.1429026048357400e-13 -1.2882750421994160e-13 -2.1336554745232661e-10 0.0021979672693855415 -4.5489124987972322e-12 7.9405915314978539e-11 7.8590327811959984e-11 0.0021979947601588278 -51.435495451599998 -185.56281141599996 168.15371392000000 294.81703600272857 0.0000000000000000 0.0000000000000000 0.0000000000000000 0.0000000000000000 3.0182130094808959 3.0364934643942756 1.0182805199800578 1.0084680930426617 31.349599871728781 31.319349743074198 1.0091014343298368 
-42.746339569193829 -171.29352785593207 166.04740509465981 -42.746339569193850 -171.29352785593204 166.04740509465987 23.119932436980953 -2.1697117934348291e-06 1.0272142404720184e-07 -1.1591834149984145e-05 0.0000000000000000 3.5568216947857543e-08 -3.7157948396694923e-07 3.2320685956025489e-07 0.0022420590239844852 -8.0097155801716264e-11 -7.8133172937958477e-11 1.4462680061181221e-10 0.0000000000000000 -42.672974891599750 -171.18173466392949 166.26923354793541 271.88244999766295 0.0000000000000000 0.0000000000000000 0.0000000000000000 0.0000000000000000 3.0162723883235127 3.0325960954000823 1.0163237296132694 1.0075867741246514 27.749656276107576 27.964596802024364 1.0081297377150262 
-59.485431712834689 -178.12528225569386 157.47843183043230 -59.485431712834711 -178.12528225569389 157.47843183043230 33.895193066053992 1.6361334794402367e-05 4.0621579929208857e-06 2.4695526838182330e-06 0.0000000000000000 -3.5500768991170162e-13 -1.2438661212144098e-13 -2.7824342829774196e-10 0.0023800547601430348 4.1210404058091789e-11 -1.1139968025932561e-10 1.4782108387087299e-10 0.0000000000000000 -59.382734921100123 -178.01738339707751 157.75061606229067 243.94852352315442 0.0000000000000000 0.0000000000000000 0.0000000000000000 0.0000000000000000 3.0168044080187051 3.0336628131844936 1.0168584183611886 1.0076795537844645 13.782900253663056 13.781084231483511 1.0083956889830779 
-30.723311980104931 -102.78553773075822 94.738099780484120 -30.723311980104921 -102.78553773075826 94.738099780484120 44.523685404328290 -2.6022709498577408e-05 -3.4188655739390866e-05 8.6743004789524469e-05 0.0000000000000000 -8.6975261231230389e-08 2.5352649978969964e-07 1.3249116548862012e-06 0.0043564402682800133 -2.2863583557039467e-10 1.4534555312259801e-09 -1.1978937448388090e-10 0.0000000000000000 -30.660097366607719 -102.72526557899965 95.328291536857705 204.58703120518373 0.0000000000000000 0.0000000000000000 0.0000000000000000 0.0000000000000000 3.0107444416366556 3.0215084996232435 1.0107638271508168 1.0061707360322700 33.018780296386588 33.017725291807359 1.0053621610041314 
-18.847297870840233 -110.93900753225313 92.688928599530016 -18.847297870840229 -110.93900753225309 92.688928599530001 84.809921814359114 -2.8514304885822953e-05 1.6825125704099075e-07 7.0084243376784019e-05 0.0000000000000000 -1.4982806662011683e-13 -4.4755865680201623e-14 -6.7991257068911171e-10 0.0042693114729605410 9.0448514987417957e-10 2.3005202800810210e-11 -1.5163245092446264e-10 0.0000000000000000 -18.804221549666405 -110.90595113131390 93.354036648627854 267.24800799435923 0.0000000000000000 0.0000000000000000 0.0000000000000000 0.0000000000000000 3.0192077073344179 3.0384912894798073 1.0192836045346318 1.0089207091498118 89.853202613467644 89.858268531497302 1.0095995938657856 
-33.915905844325039 -104.75451060795868 84.377100554873550 -33.915905844325039 -104.75451060795874 84.377100554873522 91.076932828426990 -2.4530577048211044e-05 -1.5962223907817305e-06 4.6472521042589179e-05 0.0000000000000000 -1.9283458615675128e-07 6.0276340464078770e-08 1.1002673889013002e-06 0.0044264099404470623 -4.3914725206874984e-10 -2.8686203224247319e-11 -4.5335539301667417e-11 0.0000000000000000 -33.815892125380543 -104.71065599625929 85.007910193808286 270.69679205096202 0.0000000000000000 0.0000000000000000 0.0000000000000000 0.0000000000000000 3.0239447442400165 3.0479261933757713 1.0239814118038486 1.0101564690114648 78.135401062856104 78.141181843440080 1.0119127516807682 
-18.964431891536147 -100.40099868136492 94.745427840847555 -18.964431891536147 -100.40099868136491 94.745427840847526 67.029629625315792 -1.9373358470842749e-06 -4.3649261554838333e-06 2.8977831776446938e-05 0.0000000000000000 -1.5195136815471244e-13 -2.4522051056408145e-14 -6.6716054902826727e-10 0.0040406156419777566 4.7748781287302278e-10 2.3845484415165898e-10 1.3171504096413796e-10 0.0000000000000000 -18.921183722278450 -100.37968114352928 95.398064000337470 185.31956687594098 0.0000000000000000 0.0000000000000000 0.0000000000000000 0.0000000000000000 3.0164436300009836 3.0329601835497666 1.0165166578092788 1.0084976903504754 52.626061731327496 52.593767323215424 1.0082300648206741 
-31.197186800227701 -118.04719516023894 172.99120559752956 -31.197186800227691 -118.04719516023896 172.99120559752959 57.758099926448466 -3.8133170121325185e-05 -2.5434958146494109e-05 -2.2390597532730859e-05 0.0000000000000000 4.8513661239605445e-07 8.9874262164017288e-08 3.7661928164874082e-07 0.0024893247414253658 1.5608315984733780e-10 1.5501087115119446e-10 2.1920942480907636e-10 0.0000000000000000 -31.124431206993112 -117.97934695114738 173.21200361760444 258.17126679857051 0.0000000000000000 0.0000000000000000 0.0000000000000000 0.0000000000000000 3.0151949010671313 3.0304048622432869 1.0152098210114273 1.0070925733679461 40.398093889327235 39.995298013887130 1.0075766124723133 
-30.699964074823555 -133.20732563039968 164.56421285522222 -30.699964074823576 -133.20732563039971 164.56421285522231 35.601387836108181 -3.1548832016353522e-05 3.6491354040371738e-06 2.0216396432736778e-06 0.0000000000000000 5.5352784523565650e-07 -1.2917356562126224e-07 2.9214642787045080e-07 0.0023520557011500265 4.1601788946497538e-10 -1.8523550721833724e-10 -6.5373876548909454e-12 0.0000000000000000 -30.642131568542830 -133.13454878399213 164.80820313575899 262.24283076768535 0.0000000000000000 0.0000000000000000 0.0000000000000000 0.0000000000000000 3.0119264817861757 3.0238618677040234 1.0119353419813530 1.0057134572126882 19.814502373809852 20.216330327557259 1.0059482905479660 
-42.729717959527740 -120.21855428541333 163.40109975067307 -42.729717959527754 -120.21855428541326 163.40109975067301 14.416226449335280 -4.4323567564466029e-05 -2.2477560669743256e-05 1.7983263449635837e-06 0.0000000000000000 7.8204034266055801e-07 1.7468627969300378e-07 1.1625420033317164e-06 0.0027167340678738096 3.1430904131378748e-10 6.2098503229125311e-10 -1.4975360027796114e-09 0.0000000000000000 -42.676694985445003 -120.10595080876966 163.70375490782192 268.28772502602959 0.0000000000000000 0.0000000000000000 0.0000000000000000 0.0000000000000000 2.9981026099664287 2.9961578191639977 0.99805521206198378 1.0011358845441616 17.785803040142408 17.569874606749067 0.99902840431019491 
-23.797662361495341 -114.27073525189518 161.56537303232631 -23.797662361495330 -114.27073525189510 161.56537303232645 59.562803943755604 -1.6493536722113340e-05 -1.2359867725613889e-05 -1.2196690205175909e-05 0.0000000000000000 -1.7726098366921406e-13 -3.9010461527766444e-14 -2.5290702865277126e-10 0.0023447242438234882 6.7274628747629193e-11 -1.1496643789491499e-10 5.2484973931235905e-11 0.0000000000000000 -23.747323328369049 -114.23396745764113 161.81277151251504 321.01516800445251 0.0000000000000000 0.0000000000000000 0.0000000000000000 0.0000000000000000 3.0177154025516590 3.0354836571886623 1.0177682014519249 1.0080654924198207 39.327435368776236 40.125300408562751 1.0088480896592964 
-6.4883924792639496 -105.01400898573932 108.76387991821802 -6.4883924792639496 -105.01400898573932 108.76387991821800 18.286809824541137 -4.3417598168660942e-06 8.9135697919831858e-06 3.8199135660326293e-05 3.3529831096438070 -8.7140364368742951e-14 -3.5360603334311242e-14 -5.8024895999153614e-10 0.0030029078663152946 -3.5966412459213398e-11 5.3295184221165857e-12 7.9169796915168805e-10 0.0027151809553596826 -6.4634479885999987 -104.98755276399999 109.33149947120000 327.67017865987640 0.0000000000000000 0.0000000000000000 0.0000000000000000 0.0000000000000000 3.0174826829959209 3.0350226630466768 1.0175400151760245 1.0082691479458048 50.397877594745786 50.348703625690078 1.0087326689137248 
-11.839633765571506 -97.134559412488940 100.82189867082830 -11.839633765571506 -97.134559412488926 100.82189867082830 52.705692086324404 6.2930813319870391e-06 -3.6353986804898369e-06 4.0870065495620470e-05 44.081493472189152 -1.1423847978697665e-13 -1.7430501486614961e-14 -6.2948757317826665e-10 0.0036444584741144549 1.2653706983324790e-10 -1.0055530818620781e-10 6.1608974187323970e-10 0.0035740428373359063 -11.806838433999999 -97.116880539599975 101.43768333439998 212.90238721710071 0.0000000000000000 0.0000000000000000 0.0000000000000000 0.0000000000000000 3.0180047685824078 3.0361024251576407 1.0180977986290181 1.0087035024280566 2.5283401718245524 2.6960197850260217 1.0090085818606591 
-15.888339854025064 -110.39255046425195 102.49176914751767 -15.888339854025064 -110.39255046425201 102.49176914751769 40.295510557293298 -2.2385651599384245e-05 9.4370379466690864e-06 6.9302897280522718e-05 0.0000000000000000 -1.3453474445590530e-13 -4.3326453535996734e-14 -6.1913918436573567e-10 0.0034697209437346897 -2.1074703753859532e-10 8.5327986268127602e-11 1.2256498516642998e-09 0.0000000000000000 -15.849604639409371 -110.36010279166017 103.09742667861765 236.22178992679409 0.0000000000000000 0.0000000000000000 0.0000000000000000 0.0000000000000000 3.0183676208944861 3.0367935526712917 1.0184259869813028 1.0083269240220554 16.221333013471789 16.200294207624662 1.0091714358600457 
-23.799921001181733 -99.554587133884951 101.67121304388930 -23.799921001181740 -99.554587133884965 101.67121304388930 39.375251245904337 -1.9012436821236196e-05 -3.9179975917066322e-05 5.3351060394021040e-05 0.0000000000000000 -1.7431889265395737e-13 -2.0872192862952943e-14 -6.2422556013075337e-10 0.0036663949506608403 5.0398399502035501e-10 -4.5320598274066217e-10 1.2872909905332995e-09 0.0000000000000000 -23.749578654390465 -99.534212460059550 102.28184693721489 211.57004919854941 0.0000000000000000 0.0000000000000000 0.0000000000000000 0.0000000000000000 3.0149142481848226 3.0298245259232650 1.0149101394299258 1.0073034795626725 42.263748345678430 42.383242147852123 1.0074272169727980 
-54.099528351454552 -108.48877082259256 113.31218306009060 -54.099528351454545 -108.48877082259256 113.31218306009059 6.8653363014171900 -1.2907560895818844e-06 -1.0232042263015834e-05 1.2984898272364943e-05 0.0000000000000000 4.3381700878835718e-07 9.9816352915164217e-07 3.6048690954450538e-06 0.0040257269549087652 -1.6329548324345628e-09 8.0207119875718530e-10 -2.4108126782495545e-09 0.0000000000000000 -54.087034329299712 -108.37170302860723 113.84396407125838 191.01171882188567 0.0000000000000000 0.0000000000000000 0.0000000000000000 0.0000000000000000 3.0002526945298844 3.0004527653360125 1.0002000090154071 1.0005775384060920 12.616379438352743 12.608215612545074 1.0001015543413569 
-41.699404664456551 -107.85714947938185 110.44140993930628 -41.699404664456551 -107.85714947938185 110.44140993930624 11.814678945605909 8.6910017854440972e-06 -1.5043970406010235e-05 -2.0562184496339337e-06 0.0000000000000000 6.9545890145830173e-07 3.1319855970728271e-07 3.0692784806477649e-06 0.0034033477131591005 6.1407922220035642e-10 -6.1074289854487846e-10 -5.2803525360868120e-10 0.0000000000000000 -41.690910404717421 -107.74885629568415 110.97670241767709 270.34727434602189 0.0000000000000000 0.0000000000000000 0.0000000000000000 0.0000000000000000 3.0032576150934616 3.0064876978722319 1.0032300672035992 1.0018542022046484 14.895051361993470 14.958578220166142 1.0016135892912770 