# For a description of the Tecplot format see the Tecplot User's guide.
#
Variables=x,y,z,s_u,s_v,s_w,s_p,mono_f_vel_u,mono_f_vel_v,mono_f_vel_w,const,u_nu,v_nu,w_nu,p_nu,x_nu,y_nu,z_nu,const,u_ref,v_ref,w_ref,vol_ref,x_ref,y_ref,z_ref,const,I1,I2,I3,J,p1,p2,p3
Zone f=fepoint, n=3174, e=16683, et=brick, c=black
-25.7365 -155.455 102.782 -25.736506377878939 -155.45524865444472 102.78209386884147 4.0032788875172596 1.0162841797306622e-05 -0.00010006646141761461 0.00016015920071222215 103.72683241023952 6.4541980093757445e-10 2.5330315622795746e-10 8.7595340474422301e-06 0.021344899020074509 -6.2427547548349760e-08 -6.1517382563852475e-07 -1.9914904670550842e-07 0.022453846386371712 -24.903554063199991 -154.16086777200002 112.24023381839994 89.724962256112903 0.0000000000000000 0.0000000000000000 0.0000000000000000 0.0000000000000000 3.3057122703571973 3.6314316436078196 1.3260828064736456 1.1587024689471306 1557.3874945638306 1557.4042084027244 1.1515950923184421 
-38.651540825856110 -156.33483107056074 105.70383143464652 -38.651540825856124 -156.33483107056063 105.70383143464645 -15.168032449257327 6.8125349394070956e-05 0.00011980043086442321 -9.5862449082964824e-06 0.0000000000000000 -0.00010391084443904161 0.00019013219013265699 -9.7374697994028952e-06 0.0074814388360733971 -2.8498053018411242e-08 -1.1643659921292266e-07 4.6610150207875941e-08 0.0000000000000000 -37.438273663334591 -155.10473791080037 114.93291110338620 89.036758072416930 0.0000000000000000 0.0000000000000000 0.0000000000000000 0.0000000000000000 3.3567077561514895 3.7469068937279810 1.3910568885943178 1.1758969784344093 1889.8557748560654 1889.8436041419552 1.1794412501183331 
-32.531709347739877 -149.06191210664167 111.20306193303884 -32.531709347739906 -149.06191210664161 111.20306193303891 -33.464836727528862 -1.7738468365450592e-05 0.00015044077899873317 7.8385646258266047e-05 0.0000000000000000 7.6640679913531073e-10 2.3146551342279051e-10 8.0187630189243464e-06 0.011872341238640560 -3.3049137095007008e-08 2.4059822634342844e-07 2.4809516995618500e-07 0.0000000000000000 -31.542619574254449 -147.87907313389167 119.86135157363466 98.260374494724786 0.0000000000000000 0.0000000000000000 0.0000000000000000 0.0000000000000000 3.3306918047054372 3.6883284629967070 1.3582008030936741 1.1663267038382894 1861.4701511170845 1861.4872944642464 1.1653013356814368 
-29.568661829180126 -144.06300671480960 102.65423671029511 -29.568661829180115 -144.06300671480952 102.65423671029518 -21.855779703567208 -0.00025751199053364223 7.3343721435205716e-05 0.00014146154161920075 0.0000000000000000 7.1365011122814792e-10 2.1440493824798066e-10 8.7707813207771324e-06 0.077259353941869210 -4.2212763170182886e-07 2.9652152839818478e-07 -3.1453861684144492e-09 0.0000000000000000 -28.647655777685479 -142.96738158566356 112.12452093910819 112.69127588814607 0.0000000000000000 0.0000000000000000 0.0000000000000000 0.0000000000000000 3.3388814142899905 3.7047014286395230 1.3663234138312774 1.1707091162191521 1815.3872578658988 1815.3280372076701 1.1687966754153265 
-25.079721162827145 -202.54815104758643 60.226324295351240 -25.079721162827148 -202.54815104758643 60.226324295351233 -1920.8196772648766 -0.00017216240487117799 9.4664823035881093e-05 -0.00013292064626293146 -1826.9871374571708 6.3372648795301256e-10 4.1406300610447033e-10 1.2503056261436996e-05 0.0068655658720647118 -1.7115821884506213e-09 1.2773489177263391e-08 -3.2563066366673401e-10 0.0094454464192763269 -24.261860196399997 -200.43215969199997 73.726546483199982 142.71380061529433 0.0000000000000000 0.0000000000000000 0.0000000000000000 0.0000000000000000 3.3045975924630322 3.6293948399476088 1.3251758920641816 1.1510194425916036 4839.5095301217434 4839.4975799325393 1.1511615813791136 
-24.972801983033587 -189.52791028531007 61.975834040575371 -24.972801983033584 -189.52791028531007 61.975834040575378 -1969.9901022423207 0.00013656041483953551 5.1766004065948457e-05 9.4520252463052088e-05 -2012.2347633334862 6.3182278853268770e-10 3.6960834393084951e-10 1.2349156357061023e-05 0.0092898803914208752 8.5917412321498836e-09 -2.7835645378565575e-08 -1.0617868070651381e-08 -0.00013103594121810887 -24.157397762799999 -187.63907770800003 75.309882232799993 165.73632395326644 0.0000000000000000 0.0000000000000000 0.0000000000000000 0.0000000000000000 3.3044243935998274 3.6288775447346042 1.3248218121591562 1.1510194425916036 5103.4849235948413 5103.4572427736721 1.1509988372672366 
-35.953250860463740 -197.43816853089399 68.922441811250110 -35.953250860463726 -197.43816853089382 68.922441811250081 -1866.9229899052641 0.00015202602589165374 -6.3178586715902367e-05 -2.9958474792412779e-06 0.0000000000000000 8.2732040662669704e-10 3.9660585926526437e-10 1.1738081045820083e-05 0.0060704838732936993 -2.4626303816195084e-08 1.0111892545946998e-08 1.9580757445528845e-08 0.0000000000000000 -34.885542273181727 -195.41132893576267 81.596679120775832 139.46796289390394 0.0000000000000000 0.0000000000000000 0.0000000000000000 0.0000000000000000 3.3027558953288429 3.6256136786661264 1.3232411773753718 1.1485276800332238 4927.9796790354412 4928.0765090115337 1.1503319383252590 
-19.512541497439273 -196.54088506166698 68.719435504832163 -19.512541497439269 -196.54088506166690 68.719435504832120 -1943.7952257417360 -1.0801064775905062e-05 0.00037454238943275840 0.00025198926256381269 0.0000000000000000 5.3460516569181483e-10 3.9355452230438454e-10 1.1755938992052959e-05 0.0062809219379023444 7.6852330541932495e-09 1.3233615239543309e-08 7.0113369944974239e-09 0.0000000000000000 -18.822600960987238 -194.52970000168264 81.412954998504986 111.95285379220412 0.0000000000000000 0.0000000000000000 0.0000000000000000 0.0000000000000000 3.3051886261801124 3.6305327949954358 1.3257203887750897 1.1510194425916029 5125.3646457896075 5125.3634241440477 1.1514042893355905 
-23.444264162933230 -103.59755032902332 26.538701929415694 -23.444264162933226 -103.59755032902332 26.538701929415701 -756.60427311879982 -0.00012228268097959152 0.00022085479992893037 -0.00020673238189902618 -807.25173428678704 6.0460700335163153e-10 7.6246120528367101e-11 1.5466470241420893e-05 -0.051850680336636146 1.0569673876844419e-08 -1.6297623291995802e-08 1.6879192602336306e-08 -0.048552905537750990 -22.663982073999996 -103.20790935200000 43.238681550399988 69.202643319072678 0.0000000000000000 0.0000000000000000 0.0000000000000000 0.0000000000000000 3.3042631657884298 3.6286494311448618 1.3247626342450263 1.1510194425916029 2993.1112277733964 2993.5652749216283 1.1509833589510217 
-31.108037906335188 -111.29707841656514 30.682353573706656 -31.108037906335195 -111.29707841656516 30.682353573706660 -685.12892709480764 -4.6744370262617582e-05 0.00020201549778543974 -0.00018511687665780847 -623.90528282416574 7.4105530045720503e-10 1.0253486948386127e-10 1.5101963803942907e-05 -0.056256752496062538 2.2084332192947796e-09 -1.0812053305873484e-08 7.7713531660513155e-09 -0.061451924947851670 -30.151660686400003 -110.77310694400001 46.988755992800002 74.715282964229786 0.0000000000000000 0.0000000000000000 0.0000000000000000 0.0000000000000000 3.3044405798900063 3.6290172318827909 1.3249533355406597 1.1510194425916016 2769.2715192377141 2769.8194766091005 1.1510662813672126 
-19.423034187241104 -103.96306630369804 34.018936095875539 -19.423034187241107 -103.96306630369804 34.018936095875532 -642.69501837826022 -0.00011450171614391086 0.00013128043123036338 -0.00018664920792419747 -650.04794407881775 5.3301205116262906e-10 7.7498674144749215e-11 1.4808453169479206e-05 -0.058286924896521160 5.2311010495320637e-09 -6.4537308338933679e-09 9.7347057929438761e-09 -0.059608665153874203 -18.735150314000002 -103.56704831999998 50.008419303199993 79.719497061372692 0.0000000000000000 0.0000000000000000 0.0000000000000000 0.0000000000000000 3.3042747752396053 3.6286615790181291 1.3247627629632908 1.1510194425916018 2745.7976868148912 2744.3331857381195 1.1509832122166093 
-26.338667770721223 -98.793414380054116 35.094958810324243 -26.338667770721223 -98.793414380054102 35.094958810324222 -671.74205668476020 -7.5623567343636488e-06 4.6834128011526657e-05 -0.00036046630275333026 0.0000000000000000 6.5614211286479929e-10 5.9842353294925488e-11 1.4713798204724073e-05 -0.057109927244422549 -3.3640657194590122e-09 -4.4898307138888181e-09 1.6608948818795036e-08 0.0000000000000000 -25.491879232152165 -98.487589184379729 50.982237960580505 72.292163684038698 0.0000000000000000 0.0000000000000000 0.0000000000000000 0.0000000000000000 3.3044384910461426 3.6290393117293727 1.3249783950946645 1.1510194425916018 2838.3090656475088 2837.3044128605111 1.1510771131032838 
-26.488358996938658 -104.37371511203548 99.008046640561076 -26.488358996938665 -104.37371511203541 99.008046640561119 -204.56549898171588 -9.4476647431376029e-05 0.00090305330671055270 -0.00081214145885511585 0.0000000000000000 -0.00042915445230155998 -6.1559694315984760e-06 -4.6380060428653109e-05 -0.35111079949544449 -1.5582026014918322e-06 -1.7345169019212230e-06 3.0277383390001760e-07 0.0000000000000000 -25.283559732051039 -104.23282252886388 108.75695162467670 96.378087069502698 0.0000000000000000 0.0000000000000000 0.0000000000000000 0.0000000000000000 3.3754817346367472 3.7808814816170764 1.4052734340263697 1.1804573256697288 2126.5584435569322 2126.5552550042344 1.1852010956613064 
-27.093048882960883 -118.32044621375718 101.10099499405032 -27.093048882960861 -118.32044621375724 101.10099499405032 20.470621205475201 0.00027721986837452836 -0.00061382124100847995 -0.00059247596231181072 0.0000000000000000 -0.00031009128275104390 0.00050569238517776368 0.00029186652598164940 -0.21917762335442439 -2.3050047450006091e-07 2.1614402673676453e-07 3.1774260133029457e-06 0.0000000000000000 -25.913646985361510 -118.01095136745833 110.66456878241424 88.846747377876298 0.0000000000000000 0.0000000000000000 0.0000000000000000 0.0000000000000000 3.4304787339296499 3.9068008599207245 1.4764800631818809 1.1956036117774400 1932.2517522727869 1932.2641087800507 1.2157488769020908 
-38.258051509730592 -112.18886353595086 102.79672406200046 -38.258051509730620 -112.18886353595089 102.79672406200051 -660.64565415844947 -0.0028188825541902896 0.00012836267949705915 0.00013221411155770257 0.0000000000000000 -0.00035862188799167303 0.00087548672598865361 0.00034695339236938172 -0.89485877264875768 1.1204026757748011e-06 2.4472112209793997e-06 2.8155623043205116e-06 0.0000000000000000 -36.236867317722961 -112.72601430119678 112.03758904139967 95.996160021407249 0.0000000000000000 0.0000000000000000 0.0000000000000000 0.0000000000000000 3.2610853053362270 3.5317453690652196 1.2697214259552423 1.1337158839269690 2569.5142097092607 2569.5490174976785 1.1254910822582171 
-35.155413303032446 -104.82268584563788 95.963855894737108 -35.155413303032446 -104.82268584563784 95.963855894737165 -283.60609073371108 -0.0011161721852095969 0.00064703536090794547 0.0017336480081109205 0.0000000000000000 -0.00036325599161132635 0.00045431537308770982 -3.6852283909222723e-05 -1.7183174334261322 -1.4195260454863333e-06 1.2934095171517736e-06 -7.2429859521976134e-06 0.0000000000000000 -33.380789828628046 -105.09637623893835 105.63342596379557 85.433794965156210 0.0000000000000000 0.0000000000000000 0.0000000000000000 0.0000000000000000 3.3610268402898531 3.7456471675643010 1.3843558367509552 1.1620896540368577 1736.0794456572980 1736.0790888607612 1.1767273447856752 
-115.10586812932196 -162.07332330933679 116.51005661540992 -115.10586812932199 -162.07332330933676 116.51005661540991 -233.74524784281346 -1.1464170950713555e-05 4.4944749805757578e-05 -2.0758535939605903e-05 -214.70431506480395 2.2365925500533734e-09 2.7588820117330215e-10 7.5519202695772938e-06 -0.067676840269697572 9.7051150212745048e-09 -4.1760381086223332e-08 8.9570052824053728e-08 -0.057013122360527919 -112.21942232800005 -160.66347960400000 124.66427103520003 147.55923210393107 0.0000000000000000 0.0000000000000000 0.0000000000000000 0.0000000000000000 3.2991191071416814 3.6172924675244071 1.3185196374745736 1.1510194425916034 2017.2339709941300 2017.2340512945518 1.1482861852842043 
-102.12069515616406 -159.45892025133924 107.58267574053983 -102.12069515616399 -159.45892025133929 107.58267574053981 -212.16938872544097 -5.6255601581170996e-05 -6.9222499450129999e-05 4.5551927482023391e-05 0.0000000000000000 2.0053899374428141e-09 2.6695046173585979e-10 8.3372391372904531e-06 -0.077155159704614701 4.1057890700335484e-08 2.3127673218099196e-07 5.8125308107384552e-08 0.0000000000000000 -99.532617471171264 -158.09468895943013 116.58484116745363 117.70414803503969 0.0000000000000000 0.0000000000000000 0.0000000000000000 0.0000000000000000 3.3193446083448590 3.6611255623472978 1.3422203271216113 1.1577433044249441 2063.4043000155966 2063.4057687054865 1.1585119395794024 
-107.04376046537706 -150.05514735161080 112.34161433624735 -107.04376046537708 -150.05514735161071 112.34161433624739 -216.77191010928874 -3.5894181255028536e-05 3.4283521401349989e-05 0.00034346557417794065 0.0000000000000000 2.0930455979506490e-09 2.3485524636157606e-10 7.9186074799508788e-06 -0.10805701167222080 4.4785663678794810e-08 -4.9774418760545616e-08 -2.5046063443248365e-07 0.0000000000000000 -104.34256255272837 -148.85497981259945 120.89176065121424 119.29379793442074 0.0000000000000000 0.0000000000000000 0.0000000000000000 0.0000000000000000 3.3168233755397880 3.6564526932630770 1.3400734936635277 1.1588477391590137 2094.4405530369281 2094.4403754570235 1.1576029900577172 
-103.14195344467193 -163.72165620833334 116.40347782151113 -103.14195344467193 -163.72165620833320 116.40347782151106 -219.99305882793297 -1.9692798550245467e-05 -1.0561160849682680e-05 9.1769386414153630e-06 0.0000000000000000 2.0235776110322234e-09 2.8150992648079409e-10 7.5612957388671029e-06 -0.066824625989385336 -2.9392475693058486e-08 7.8518878725759654e-09 3.3153385455528242e-10 0.0000000000000000 -100.53040969477119 -162.28305471776312 124.56781543385799 141.51484144144280 0.0000000000000000 0.0000000000000000 0.0000000000000000 0.0000000000000000 3.3087164320274249 3.6385148761810342 1.3301988981337189 1.1543809282448367 2022.7866167252816 2022.7863726514349 1.1533394884243717 
-80.491621035379083 -149.99658379271850 77.598026182238286 -80.491621035379097 -149.99658379271847 77.598026182238286 -313.80936580954915 -0.00026406320850172737 0.00017091146305708889 -0.00011130004235549382 -278.96445806746863 1.6202975350321225e-09 2.3466606435817994e-10 1.0974912076022749e-05 -0.065848459685982019 -1.1606245661656413e-07 2.0897490556877667e-07 -7.5388409081306866e-08 0.044237846503056295 -78.400527573600002 -148.79743798799998 89.448228916799977 108.06316173413846 0.0000000000000000 0.0000000000000000 0.0000000000000000 0.0000000000000000 3.3037055963156097 3.6262185964507858 1.3228184860258483 1.1510194425916016 2182.8700741347648 2180.0944122322394 1.1501523771123254 
-82.281585846833167 -163.97771312616013 75.746989651466009 -82.281585846833181 -163.97771312616015 75.746989651466023 -350.25139546047899 7.2606894728850704e-05 -0.00012880321223357859 1.7235691135243044e-05 -354.52464022449419 1.6521744805597649e-09 2.8237190363711306e-10 1.1137743022970881e-05 -0.040179891782113550 2.8304836558427105e-08 1.2622677397221884e-08 4.0621476057728250e-08 -0.010033909063643025 -80.149363288800018 -162.53464431600008 87.773009718400019 109.57810873427631 0.0000000000000000 0.0000000000000000 0.0000000000000000 0.0000000000000000 3.3081533137495502 3.6369699084948177 1.3292161623823184 1.1510194425916018 2207.4799805082007 2208.0626068253882 1.1529210574774604 
-86.525209458652441 -161.58577095691686 83.702847854041508 -86.525209458652455 -161.58577095691689 83.702847854041480 -344.55529829936063 -0.00014263639638445756 -1.8237941143685325e-05 -0.00012794501272244153 0.0000000000000000 1.7277189401365689e-09 2.7420821169243941e-10 1.0437886519554242e-05 -0.052474165877080960 -1.3879886243809213e-08 4.8242549272561474e-08 1.4766678095993523e-07 0.0000000000000000 -84.295478612813938 -160.18443337667750 94.973195224810283 106.11323630727971 0.0000000000000000 0.0000000000000000 0.0000000000000000 0.0000000000000000 3.3005652506338903 3.6223923184802089 1.3222501232224178 1.1488437733168817 2213.7451857463984 2213.6445847921054 1.1498812029700605 
-88.754976218335926 -152.63533207521706 81.118685565915897 -88.754976218335955 -152.63533207521698 81.118685565915925 -427.88281364113612 -0.00038185221329249051 0.00010352434030220522 -0.00024973384839195443 0.0000000000000000 1.7674313956828058e-09 2.4367219353393921e-10 1.0665208677096416e-05 -0.083569181853084304 -1.1988674095559346e-07 8.6014337740156563e-08 1.4473655308901043e-07 0.0000000000000000 -86.474010682800568 -151.39014911596544 92.634484883397832 94.367740677547317 0.0000000000000000 0.0000000000000000 0.0000000000000000 0.0000000000000000 3.2900443170021081 3.5984798946124381 1.3087620085117424 1.1475049049993067 2351.6565943919068 2352.2917338813209 1.1440276285589981 
-26.877833810404180 -133.33943042200193 131.95767391673019 -26.877833810404180 -133.33943042200193 131.95767391673013 -14.836104406575926 9.5858155519209140e-05 -0.00025534539259378786 0.0015257001878248612 75.822358862986675 6.6574043500189351e-10 1.7779067107426269e-10 6.1930328953962999e-06 0.46026764312238017 1.6032556369857423e-07 -4.5574020573930860e-07 3.4645864817989154e-06 0.47106339935574676 -26.018656529999991 -132.43089511199997 138.64462455200004 49.421240865332216 0.0000000000000000 0.0000000000000000 0.0000000000000000 0.0000000000000000 3.2958884690633492 3.6123808058038684 1.3172734613479340 1.1594540699566143 1456.5266444618608 1456.5266934282809 1.1477684138152588 
-33.506945269232290 -134.89244340796964 130.80667388365777 -33.506945269232304 -134.89244340796961 130.80667388365779 -49.241986514281173 -0.00031770592619520353 -0.00017607305908555208 6.0189229148794553e-05 -538.08032228964100 7.8376802270518919e-10 1.8308821125856412e-10 6.2942834269108525e-06 0.25147612815079629 -7.8796517959324569e-07 -4.8123767564580589e-07 1.1832373541391926e-06 1.8256954770414071 -32.495446914399992 -133.95681332000001 137.60295016000006 48.530522504776933 0.0000000000000000 0.0000000000000000 0.0000000000000000 0.0000000000000000 3.3311987584442027 3.6844494894225526 1.3528614376978709 1.1658349150395968 1807.9259843640748 1807.9259673799822 1.1627231258349937 
-29.333813660508927 -137.41847787905547 133.79786070619184 -29.333813660508937 -137.41847787905547 133.79786070619184 -90.277313732706460 0.00017363861748259616 0.00031851905081270449 2.9531259941146003e-05 -127.56069153634456 7.0946623575984802e-10 1.9171730869516068e-10 6.0311563565562665e-06 0.10074853722688643 6.0835008526394305e-07 8.5333870826866608e-08 2.2098463785346346e-08 -0.25849891026006006 -28.418203856399998 -136.43877710800004 140.31002455199999 44.353383947079159 0.0000000000000000 0.0000000000000000 0.0000000000000000 0.0000000000000000 3.2995095698083805 3.6182565413728511 1.3191092690128046 1.1518531289823928 1756.9486240641336 1756.9486304533975 1.1484906450435661 
-27.645174417600508 -130.35826120303784 137.70752263606158 -27.645174417600511 -130.35826120303776 137.70752263606161 -221.31551417210375 -3.8543557644821535e-05 0.00029974856780121654 9.2684982665540284e-05 0.0000000000000000 6.7940106318609139e-10 1.6760148824346288e-10 5.6872334042168396e-06 0.038286869753228973 -4.7086596237415409e-07 1.7561545045411754e-07 -1.3373555649377789e-07 0.0000000000000000 -26.768365491316434 -129.50173712462359 143.84833436668455 49.139845408488213 0.0000000000000000 0.0000000000000000 0.0000000000000000 0.0000000000000000 3.3369755797102401 3.7008184280661238 1.3642708377158774 1.1616524373755368 2383.8347912564136 2383.8348097239432 1.1678597100696668 
-41.258369406769830 -65.195731251115262 148.87311253029100 -41.258369406769823 -65.195731251115262 148.87311253029105 -689.71647663760211 0.00097383211268138115 6.0894325353760585e-05 -0.0017560183664304880 -79.989009227179935 9.2177729338338555e-10 -5.4851234665420634e-11 4.7050250131519533e-06 0.41067148942049042 2.9917235148027306e-06 2.7717589162850736e-07 -4.2495049496624515e-06 2.4441877062855348 -40.068761925200000 -65.476070995999990 153.95338104800004 156.95717166164070 0.0000000000000000 0.0000000000000000 0.0000000000000000 0.0000000000000000 3.3739455256296869 3.7772043225204981 1.4037282574728862 1.1591932649943018 2609.7444474643098 2609.7832642723361 1.1854538718370262 
-53.907000580497481 -59.272089180727420 143.69136735358180 -53.907000580497474 -59.272089180727441 143.69136735358182 -935.45431907228340 0.0013927854736722407 0.00087056230173856129 -0.0035532864393473733 -349.51080721083150 1.1469759308990744e-09 -7.5082384753954999e-11 5.1608498807809147e-06 -1.5222356943999920 -8.0825797307017781e-06 -1.1654398128709372e-06 8.1714024698644121e-06 -3.3074349650171508 -52.426757905599978 -59.655776269200025 149.26381449600007 118.05125250056595 0.0000000000000000 0.0000000000000000 0.0000000000000000 0.0000000000000000 3.3339260638262522 3.6922463684579703 1.3587170729174718 1.1562593584592862 3298.6632049826153 3298.2989464456282 1.1654001709078528 
-36.247384331047556 -65.759262113586217 138.97960588290107 -36.247384331047556 -65.759262113586232 138.97960588290107 -1757.2464000708590 -0.00051682230889770777 0.00065969697496750721 -0.0016832958940651342 -1839.9033598642297 8.3256243565976717e-10 -5.2932103145053588e-11 5.5753314889273042e-06 0.40359056638677243 3.6295653809988885e-07 -8.0163889229939695e-07 1.2568159076657588e-06 0.29798189528033031 -35.172917262399999 -66.029770167599992 144.99959110400002 155.12084301790807 0.0000000000000000 0.0000000000000000 0.0000000000000000 0.0000000000000000 3.2697772429858936 3.5575317823466008 1.2880103054314775 1.1397241810932575 5418.2192774311134 5418.1045966661350 1.1344316285887783 
-51.845707347344629 -66.329570062320826 135.89002739350323 -51.845707347344621 -66.329570062320798 135.89002739350323 -1828.6562604876337 0.00081446993744419818 0.0030115665524054667 -0.0048374311952656688 0.0000000000000000 1.1102812835783737e-09 -5.0992543521033440e-11 5.8471138046911628e-06 -0.81569000987904527 -5.4261997005749939e-06 -1.3574787861928174e-05 4.0753547473969885e-06 0.0000000000000000 -50.412828244765279 -66.590128188430739 142.20347059834828 136.07757377940416 0.0000000000000000 0.0000000000000000 0.0000000000000000 0.0000000000000000 3.1917269879049228 3.3752177746672758 1.1832213793917459 1.1123336162353803 4734.2288024272848 4734.3227836034157 1.0878478680119261 
-97.030843957815975 -160.09202801430826 64.535990231040273 -97.030843957815947 -160.09202801430823 64.535990231040273 -651.76835638015393 -0.00022168463742830883 -3.9550620651592151e-05 -0.00028337380611414252 -732.85397242969998 1.9147753105297478e-09 2.6911761707992810e-10 1.2123945971609375e-05 -0.044465577070808331 -1.9938698039518587e-08 -6.0171866919212588e-09 -3.4656282606935390e-08 -0.042736439050605465 -94.559718839999974 -158.71675115199997 77.626866652000004 109.98746742214213 0.0000000000000000 0.0000000000000000 0.0000000000000000 0.0000000000000000 3.3039151373536337 3.6278564212250264 1.3243144180253277 1.1510194425916025 2890.7673415859103 2890.7640025757423 1.1507902753356609 
-92.038553743960108 -159.83723682129792 69.852451802232395 -92.038553743960136 -159.83723682129795 69.852451802232409 -439.34840701108550 -0.00047743798716772933 0.00066937032345630587 -0.00017650861610601213 -298.28020715494125 1.8258850820185304e-09 2.6825741628044852e-10 1.1656270437754301e-05 -0.040596927326044314 -2.2963268405269364e-08 -4.0456391877120898e-08 -1.4363505015402882e-08 -0.0014739770947529267 -89.682139475999989 -158.46640519600001 82.438353807199988 112.88451412247700 0.0000000000000000 0.0000000000000000 0.0000000000000000 0.0000000000000000 3.3042191990995700 3.6283853156402284 1.3245384857822802 1.1510194425916040 2285.6558875859259 2285.6568705685340 1.1508851324508742 
-105.37266678547768 -156.25232580386543 74.460799527344633 -105.37266678547761 -156.25232580386543 74.460799527344577 -649.56286729879571 7.1922151877557580e-06 0.00015018409089719421 -9.3580147669122774e-05 0.0000000000000000 2.0632942854259539e-09 2.5601210040804290e-10 1.1250885883384855e-05 -0.064880193782074366 -3.5489597824949299e-08 -1.2007596997279064e-09 1.1440806918245824e-07 0.0000000000000000 -102.70986659571734 -154.94403864466588 86.608986019839278 111.02505284862640 0.0000000000000000 0.0000000000000000 0.0000000000000000 0.0000000000000000 3.3035680267227758 3.6270484347112562 1.3238475694830500 1.1493265320494719 2849.9965444105619 2849.9976889291238 1.1505771591440987 
-103.01570760014181 -168.69935869471684 71.213444559219568 -103.01570760014188 -168.69935869471681 71.213444559219610 -452.15861449870431 -0.00040009124326198227 0.00033419501232293485 -0.00047723601161845861 0.0000000000000000 2.0213269669167033e-09 2.9850300009570669e-10 1.1536547383173001e-05 -0.044010335033110387 -7.8215044207601895e-10 5.0977961119218389e-09 -1.3097345780883145e-08 0.0000000000000000 -100.40706467681501 -167.17391327890167 83.670075146830683 105.53983917324770 0.0000000000000000 0.0000000000000000 0.0000000000000000 0.0000000000000000 3.3058298747626926 3.6322711755537571 1.3268347004423378 1.1507915827315827 2323.2908830992010 2323.3033057368539 1.1518821468255882 
-117.56706033648457 -100.13508418418898 85.469741686288216 -117.56706033648454 -100.13508418418898 85.469741686288216 -379.37127861680648 -1.1290213198005161e-05 -6.6123630295752958e-05 7.8789468864880197e-05 -332.83126713324270 2.2804055033187609e-09 6.4424687806763359e-11 1.0282457399313218e-05 -0.12121398603123291 -1.3285043147234819e-07 -1.9683235904094949e-07 -5.9908303327124767e-07 -0.078600568401212559 -114.62406224400000 -99.805851428000011 96.572263865600007 85.211636250682801 0.0000000000000000 0.0000000000000000 0.0000000000000000 0.0000000000000000 3.3041782243708675 3.6277414890106807 1.3238903111049756 1.1550796687333518 2239.9347300140039 2239.9461345980858 1.1505968648653879 
-113.94738884315684 -91.272248485455535 89.501716074700326 -113.94738884315687 -91.272248485455535 89.501716074700340 -392.93331108049682 3.2410837782064083e-05 4.9912326742400147e-06 0.00023500921619544921 -415.94052010205547 2.2159663826126774e-09 3.4168667895073668e-11 9.9277749114889974e-06 -0.23120138863160114 2.7921766598218953e-07 6.9123290847690061e-07 -2.6076793761012082e-08 -0.21216518385020869 -111.08756211600000 -91.097641973600034 100.22126851279998 99.535403830130534 0.0000000000000000 0.0000000000000000 0.0000000000000000 0.0000000000000000 3.2955416715142127 3.6091086910270049 1.3139106935787195 1.1528824711344179 2270.9952467881881 2270.9840014891151 1.1463185285542115 
-115.80690192784517 -97.946860608672893 98.524247593143741 -115.80690192784522 -97.946860608672907 98.524247593143713 -382.28679593374886 5.8154353295120412e-05 0.00026429390892843227 -0.00016937516691193762 -486.71072351808402 2.2490639073335927e-09 5.6954441163270531e-11 9.1340858929811458e-06 -0.13093897245087530 -5.9218336104672337e-08 -1.6641840851002813e-07 2.3113445630844093e-07 -0.013023551979376493 -112.90434805199999 -97.655804887999992 108.38681131359999 128.09762094244454 0.0000000000000000 0.0000000000000000 0.0000000000000000 0.0000000000000000 3.2946675027547134 3.6069450353300847 1.3125952022213110 1.1548178259682413 2396.6641577617602 2396.6374775364338 1.1458733728587824 
-109.92199923272253 -104.24208725454861 89.865130863398662 -109.92199923272254 -104.24208725454857 89.865130863398633 -425.61120442537901 -1.2790959130090809e-05 -0.00020412871673650888 0.00025654176733673305 0.0000000000000000 2.1442903841428777e-09 7.8451245499877587e-11 9.8958062437759509e-06 -0.16754876368632049 3.2665953312470246e-07 -5.1592535161290298e-08 1.9078114018592005e-07 0.0000000000000000 -107.15466629968294 -103.84120130723400 100.55016500991876 102.24201981555134 0.0000000000000000 0.0000000000000000 0.0000000000000000 0.0000000000000000 3.3179467678909309 3.6603448435484691 1.3428741543920995 1.1595048406135200 2406.1339984356823 2406.1143242283947 1.1587825201875970 
-28.095266489440931 -115.65423806331776 93.073144878811675 -28.095266489440938 -115.65423806331775 93.073144878811661 -5.4589885984465223 0.00036995152585400361 -0.00023178498734929248 -0.00017090383378455697 0.0000000000000000 -0.00032232764781544801 0.00061290485251508234 8.9381934405911048e-05 -0.17461339700937936 -1.1000768659036950e-07 2.6830050549597124e-06 -2.3257393301202128e-06 0.0000000000000000 -26.889884864405381 -115.37486796036181 103.37575244326078 96.382960025775517 0.0000000000000000 0.0000000000000000 0.0000000000000000 0.0000000000000000 3.4086153577839289 3.8565396816392581 1.4479540877463366 1.1919311760171849 1993.0605440561353 1993.0671283141980 1.2032720194445765 
-112.39243171147075 -104.01876306617463 146.93289318695423 -112.39243171147072 -104.01876306617463 146.93289318695423 -100.95074118395142 -2.3325429474897239e-05 -7.8375577501935508e-05 -1.3843802721269598e-05 -97.757955886699534 2.1882743117540567e-09 7.7678530274738478e-11 4.8757011477107417e-06 0.068460572755396645 4.7888855404573154e-08 -5.0427942910450411e-08 4.0068929617673291e-07 0.17591473134081057 -109.56833416800004 -103.62177336400003 152.19744990400002 70.302883591683823 0.0000000000000000 0.0000000000000000 0.0000000000000000 0.0000000000000000 3.2886555515956672 3.5948535606948564 1.3065142951997684 1.1521563742171756 1723.4029529707952 1723.4066507359746 1.1430808473092937 