# For a description of the Tecplot format see the Tecplot User's guide.
#
Variables=x,y,z,s_u,s_v,s_w,s_p,mono_f_vel_u,mono_f_vel_v,mono_f_vel_w,const,u_nu,v_nu,w_nu,p_nu,x_nu,y_nu,z_nu,const,u_ref,v_ref,w_ref,vol_ref,x_ref,y_ref,z_ref,const,I1,I2,I3,J,p1,p2,p3
Zone f=fepoint, n=356, e=1130, et=brick, c=black
-66.2715 -97.6011 89.2262 -66.271487220513350 -97.601075339275624 89.226232785184507 -726.33402578596053 -2.4443131714948844e-14 1.1387810578439123e-14 1.9024670369179190e-13 2.0217686211351408e-28 7.7220749239437225e-10 4.1510794801524759e-11 1.3517452570610544e-06 0.00024510732385310937 2.1968582536007436e-20 -8.4735318738033891e-20 1.0588543983422243e-20 -3.2713486205605365e-29 -65.754724465942431 -97.517594547729473 92.373562431030237 2074.8615187338191 0.0000000000000000 0.0000000000000000 0.0000000000000000 0.0000000000000000 3.0821921988020753 3.1661357686962890 1.0839564729207893 1.0409042576770222 1490.7063810729589 1170.6162054738004 1.0411305046861832 
-76.331571092533906 -130.81339405009439 75.351145490817814 -76.331571092533906 -130.81339405009436 75.351145490817800 -297.18976788202406 -4.4251741215841182e-14 -3.2551163253895594e-15 7.9636803724628790e-15 68.797413579523180 8.7337412302268536e-10 1.2590567477488435e-10 1.5175289496127675e-06 0.00014199921382289336 -5.4444081283435455e-21 -7.3752877509247418e-20 2.7762586766901112e-20 0.0034484374948046560 -75.747104543999981 -130.56019973999997 78.884476808000016 2128.8259272129790 0.0000000000000000 0.0000000000000000 0.0000000000000000 0.0000000000000000 3.0820562315860389 3.1658432200059829 1.0837980539968390 1.0409042576770227 658.23214305686838 790.79786135456868 1.0410501423594898 
-63.923233885593710 -122.00279067019216 67.488563377618874 -63.923233885593717 -122.00279067019213 67.488563377618888 -45.233003466745430 2.9222084917202268e-14 1.6329496217946902e-14 -1.1782290877079732e-14 441.73405337087428 7.4858588772208624e-10 1.0351192125668263e-10 1.6114734222583136e-06 3.3583729047356956e-05 -3.5000642956466790e-20 5.8072605490220481e-20 -3.0877321179678727e-20 -0.00060254326707745779 -63.422274742800013 -121.79461816400000 71.240629883439979 1237.7701333319521 0.0000000000000000 0.0000000000000000 0.0000000000000000 0.0000000000000000 3.0823529987754417 3.1660638011963576 1.0837153656738219 1.0409042576770222 -14.704948098068241 13.973155008840179 1.0410182061729547 
-56.604019368558284 -132.34054517458407 73.043897756477548 -56.604019368558284 -132.34054517458409 73.043897756477563 -193.23028740000828 4.3175294003957299e-14 -1.8759442026688818e-14 -1.4396427722876073e-14 -30.491524353010412 6.7497848976749708e-10 1.2978768060278867e-10 1.5450966257546384e-06 0.00011629215648253973 -9.1957771273317371e-21 -8.9511205504317873e-20 8.3611844120451604e-20 0.00022680972211524934 -56.152318124399997 -132.07954718800002 76.641416164000006 2090.5778096190215 0.0000000000000000 0.0000000000000000 0.0000000000000000 0.0000000000000000 3.0803114956117694 3.1625131739857228 1.0822171635880431 1.0409042576770222 415.94036998925947 626.44598679634510 1.0402917359812649 
-123.80180423761810 -110.53698607038450 85.969494046980628 -123.80180423761810 -110.53698607038450 85.969494046980614 -797.75671756575832 -4.0399591309289867e-15 -3.2098266793089485e-15 1.3847293194955390e-14 -704.27634806369326 1.3507616969388181e-09 7.4386330428666270e-11 1.3906577365219164e-06 0.00041026111504730391 -3.6702092316188770e-21 -1.2107346871055423e-20 -1.9430666602534820e-20 0.00047241411814551756 -122.89786571200003 -110.38740333199999 89.207425400000020 2092.2379289329847 0.0000000000000000 0.0000000000000000 0.0000000000000000 0.0000000000000000 3.0822992420121271 3.1661310709725408 1.0838398140228382 1.0409042576770220 1790.0876116302284 1788.6681331375507 1.0410775697905696 
-123.67288649653138 -128.74674891041673 90.366328513682262 -123.67288649653140 -128.74674891041673 90.366328513682234 -752.73829786455269 2.7430406829082088e-16 -1.2568605005321069e-14 -1.9904003315540731e-14 -1241.5290886368819 1.3494568518179761e-09 1.2066031507274033e-10 1.3381230496989360e-06 0.00042180796751229718 -6.9926177294887393e-21 5.2847389082636092e-20 -7.4985142682446952e-20 0.0013026419206078087 -122.76981557999994 -128.50411506799998 93.481940963999989 2295.0048277193882 0.0000000000000000 0.0000000000000000 0.0000000000000000 0.0000000000000000 3.0823049739003703 3.1659922076367955 1.0836918377138216 1.0409042576770224 2128.6583477046038 2089.1171603122025 1.0410059379286063 
-87.996918859975480 -119.74983054642617 105.31188773732195 -87.996918859975437 -119.74983054642611 105.31188773732188 -420.65849379045738 2.7354773735052262e-14 7.2281165435671666e-14 -6.2891214254751617e-14 3.2509530695058533e-29 9.9068095393839449e-10 9.7787611341715319e-11 1.1595490327920286e-06 0.00019172900546539985 1.1835202298687175e-19 -1.2689030464560604e-19 2.8813351761433706e-19 -5.3639083794277685e-30 -87.333945182495114 -119.55317056945796 108.01171823852533 1853.2119812635015 0.0000000000000000 0.0000000000000000 0.0000000000000000 0.0000000000000000 3.0813367296021617 3.1646273218135130 1.0833106050231178 1.0409042576770224 1117.4824728868482 1282.5515709620961 1.0408222715017397 
-122.79396920500176 -119.14284967887053 104.30995337031158 -122.79396920500176 -119.14284967887055 104.30995337031160 -305.32612658149617 -8.3989707509024489e-15 -1.6314425316482466e-15 -8.6078603623098324e-14 -245.50395695691122 1.3406236953894535e-09 9.6247065872745452e-11 1.1715204504270103e-06 0.00017819373942848732 -1.5973237559821942e-20 -6.8250451851292356e-20 -8.1242862344064804e-20 0.00056813621356147396 -121.89681335200000 -118.94929134799999 107.03765745040002 1571.7251237143605 0.0000000000000000 0.0000000000000000 0.0000000000000000 0.0000000000000000 3.0821145810176453 3.1656104126751394 1.0834986900243031 1.0409042576770233 782.01508452224812 700.95774133452801 1.0409139818069717 
-44.546055581051242 -164.04734096072752 121.39753746162478 -44.546055581051263 -164.04734096072752 121.39753746162478 -73.655373609730461 3.4789896277720827e-15 1.0852568246413888e-14 -7.5103113807062499e-15 0.0000000000000000 5.5371987550678625e-10 2.1034191055591123e-10 9.6735288224181204e-07 0.0035699784478820961 1.2652940028066924e-19 -5.5389536595893492e-19 2.2387576610036711e-18 0.0000000000000000 -44.175503749389662 -163.62432261291502 123.64986896362305 1288.7765825848380 0.0000000000000000 0.0000000000000000 0.0000000000000000 0.0000000000000000 3.0908459695093455 3.1840405063604234 1.0932127062395764 1.0443177173788492 441.50799627463380 1151.4330258321645 1.0455674145771081 
-15.654340064249416 -144.18629772807515 134.16586855977164 -15.654340064249419 -144.18629772807520 134.16586855977170 -101.12708373851183 -4.9651808468605848e-16 -1.2439394661728761e-14 -1.1186286029148103e-14 183.55714217974813 2.6316608614518344e-10 1.5987750012769197e-10 8.1479304636644656e-07 0.0026216661608307644 -1.2047653107925394e-19 2.1593835597411264e-18 1.5128872568436768e-18 0.0013617822561647060 -15.478227839600008 -143.86476845600004 136.06298808800005 1207.7015194609139 0.0000000000000000 0.0000000000000000 0.0000000000000000 0.0000000000000000 3.0811182188127271 3.1636855568196913 1.0825738826274145 1.0417416051691675 672.32172782432110 592.29265052305595 1.0404643268235354 
-44.546055581051242 -164.04734096072752 137.48318718592759 -44.546055581051235 -164.04734096072752 137.48318718592770 -172.13381544965114 9.8660437728703798e-15 -5.7344658479286022e-15 3.8994918257302629e-16 0.0000000000000000 5.5371987550678636e-10 2.1034191055591123e-10 7.7515673257977369e-07 -0.0011077678243675271 2.3022472998938728e-19 9.2863657007217547e-19 -1.6677816924350968e-19 0.0000000000000000 -44.175503749389669 -163.62432261291511 139.28801968872074 2260.0113226803110 0.0000000000000000 0.0000000000000000 0.0000000000000000 0.0000000000000000 3.0808663680061668 3.1632097781732571 1.0823510771906133 1.0422116124845493 743.46767542489658 687.94980885883979 1.0403695728805291 
-5.9929650557677769 -161.87062472155586 128.36695188806723 -5.9929650557677787 -161.87062472155588 128.36695188806723 -408.75114288924493 1.9944309325674392e-14 -5.5303835274537715e-15 2.4209176133452737e-14 -654.99579527524781 1.6600498753405191e-10 2.0480633855513022e-10 8.8408022502761686e-07 0.00070145149568524802 1.2261580134607775e-19 -4.1062872856930320e-20 -1.7771016533464220e-19 -0.0082712635341101477 -5.8818733370400009 -161.45872929999999 130.42539591680000 1840.5999298976626 0.0000000000000000 0.0000000000000000 0.0000000000000000 0.0000000000000000 3.0808804799699652 3.1632092414848145 1.0823359485076409 1.0409042576770235 1190.1760867590506 1086.1248934193698 1.0403539916929421 
-9.9181761777847512 -107.24171360195949 182.43480816026789 -9.9181761777847530 -107.24171360195950 182.43480816026792 -181.28672405024676 4.2956429987266748e-16 7.0293073436687691e-15 2.2460424662094728e-17 -195.03857643618022 2.0547963330841412e-10 6.6008365440239926e-11 2.3806133864212597e-07 0.00018913327631698553 -1.3257848277234030e-20 3.0141952923344089e-19 -2.6968534715983762e-19 -0.0039250734113395339 -9.7806680107999995 -107.10896956400003 182.98909712000000 1021.2952016557671 0.0000000000000000 0.0000000000000000 0.0000000000000000 0.0000000000000000 3.0820610945796290 3.1656481617810290 1.0835950801702374 1.0409042576770235 704.46524729099576 697.49540729018111 1.0409587968863450 
-17.756023157885558 -108.77782798833145 193.13737059064198 -17.756023157885554 -108.77782798833144 193.13737059064195 -204.26754877617944 -1.2765135474011089e-14 1.5180945464854036e-14 4.0234483322687843e-15 -254.15850258362781 2.8429944509689165e-10 6.9915018219290901e-11 1.1018390555506133e-07 0.00014166003559454735 1.4300189881414991e-19 4.1028791377808741e-19 -4.3145246379243053e-19 -0.0057586186791918426 -17.565766725200003 -108.63723447200002 193.39391677600000 1230.2822850381203 0.0000000000000000 0.0000000000000000 0.0000000000000000 0.0000000000000000 3.0820477549004970 3.1656123759383985 1.0835724914353688 1.0409042576770220 813.35880909229763 807.40804345201468 1.0409471530433481 
-44.546055581051242 -119.74983054642617 169.65448663453330 -44.546055581051299 -119.74983054642614 169.65448663453344 -283.85360038496788 -7.0348148412893564e-15 1.0191866875376133e-14 1.3847172831122776e-14 0.0000000000000000 5.5371987550678625e-10 9.7787611341715319e-11 3.9076443147934015e-07 0.0066739221569059315 6.0152867285125907e-19 -2.6350849479491555e-19 2.9335523094117561e-18 0.0000000000000000 -44.175503749389591 -119.55317056945772 170.56432113891603 1872.3464537223574 0.0000000000000000 0.0000000000000000 0.0000000000000000 0.0000000000000000 3.0815217136642996 3.1646229781627770 1.0831107251687375 1.0409042576770224 959.75286073306222 981.39959203409092 1.0407304137951034 
-9.4663070014530177 -124.61864788794064 188.47847268869140 -9.4663070014530177 -124.61864788794063 188.47847268869143 -229.70755767519731 7.5659343853073752e-15 -4.5026797288066924e-14 -1.9243644294790333e-14 -257.24720420920590 2.0093506025720131e-10 1.1016537682095873e-10 1.6584982809320084e-07 0.00016720758568994283 3.8138441872627395e-19 4.6202275524279265e-20 -5.0975101527967251e-19 -0.0018736170174856906 -9.3318398883999993 -124.39710846400000 188.86462832000004 1016.3527334425750 0.0000000000000000 0.0000000000000000 0.0000000000000000 0.0000000000000000 3.0820531715838047 3.1656184522052979 1.0835730464720026 1.0409042576770235 961.98720108492319 958.11356908649316 1.0409468060957430 
-44.546055581051242 -164.04734096072752 105.31188773732195 -44.546055581051256 -164.04734096072752 105.31188773732190 -245.26383311750851 -7.2745653852738241e-15 -2.6384213381083641e-14 -6.6502694700713582e-16 1.4040763095688706e-27 5.5371987550678625e-10 2.1034191055591125e-10 1.1595490327920288e-06 0.00020259019721363409 2.1635557165194328e-19 5.6284665298499976e-19 8.0571249014088587e-19 -2.2797611672228459e-28 -44.175503749389662 -163.62432261291499 108.01171823852535 1450.3671205666894 0.0000000000000000 0.0000000000000000 0.0000000000000000 0.0000000000000000 3.0841083732160302 3.1697733365974283 1.0856730285183513 1.0426704984257607 73.720342904874983 524.28257293333979 1.0419491322231702 
-61.639242781787601 -161.36415325014471 82.673147850413201 -61.639242781787608 -161.36415325014471 82.673147850413201 -1174.5280599923242 -4.2086694767332572e-14 -1.4131754246708775e-13 -2.7906971844059384e-14 373.08429763712223 7.2561526232028939e-10 2.0352391993938568e-10 1.4300434765246450e-06 0.00049543688983478499 2.1088907859412734e-19 -4.4889049134439415e-19 -7.9683047814860967e-20 0.0033091824023540606 -61.153654769600031 -160.95484587600001 86.002782780800032 1645.6757988676138 0.0000000000000000 0.0000000000000000 0.0000000000000000 0.0000000000000000 3.0690744658762488 3.1393820605537068 1.0703147862675808 1.0381221099102895 2379.0619249563629 2342.6875567706716 1.0345665557432768 
-44.603637864765567 -168.44711148976950 79.868736760222859 -44.603637864765567 -168.44711148976950 79.868736760222859 -2384.2647766046034 6.1377819921065670e-14 -2.6183353557152032e-13 -4.0916568120675540e-14 -641.57042232946264 5.5429341672130761e-10 2.2153018308657124e-10 1.4635514089533783e-06 0.00096759604527973800 -9.9359667086700090e-20 9.4676322807307575e-20 4.0087059329879093e-20 0.00091090748288884585 -44.232698507600013 -168.00161050399998 83.276389748800028 1737.4139093181343 0.0000000000000000 0.0000000000000000 0.0000000000000000 0.0000000000000000 3.0832868452960658 3.1681373583885493 1.0848587983494598 1.0409042576770229 4472.1444004299910 4404.1638338031316 1.0415674256884562 
-44.546055581051242 -186.19609616787818 105.31188773732195 -44.546055581051228 -186.19609616787807 105.31188773732185 -2239.0495386599400 1.1140765774432597e-14 -1.2790860720407487e-13 -1.7141240633126095e-13 1.2424344371126544e-28 5.5371987550678625e-10 2.6661900465185795e-10 1.1595490327920290e-06 0.00084953825862219934 -6.0536024883628817e-20 7.4030353948149110e-20 -2.4033012661095413e-20 -2.0456408900725106e-29 -44.175503749389676 -185.65989863464350 108.01171823852533 1616.4576808433910 0.0000000000000000 0.0000000000000000 0.0000000000000000 0.0000000000000000 3.0792090111336674 3.1598544599545058 1.0806526939532735 1.0403345167636517 4464.6295811171394 4437.7374745674015 1.0395434702246054 
-87.996918859975480 -141.89858575357687 137.48318718592759 -87.996918859975423 -141.89858575357684 137.48318718592770 -248.05151878276376 5.5285193436744158e-15 -3.1392777569659526e-15 5.5929087974283267e-15 0.0000000000000000 9.9068095393839428e-10 1.5406481645996453e-10 7.7515673257977379e-07 0.00036343123005344954 2.8117033944252164e-19 -1.3233948910192351e-19 1.3920610610662928e-18 0.0000000000000000 -87.333945182495100 -141.58874659118649 139.28801968872074 1877.7986991733408 0.0000000000000000 0.0000000000000000 0.0000000000000000 0.0000000000000000 3.0876220853665655 3.1768039185127570 1.0891812190966237 1.0430495895022029 946.19840360400940 1000.8029083211339 1.0436457328880624 
-66.271487220513364 -164.04734096072752 137.48318718592759 -66.271487220513350 -164.04734096072752 137.48318718592773 -216.91708290213029 -4.4775338316908256e-15 2.1465011310215838e-14 2.7218613048057482e-14 7.6638283832357137e-29 7.7220749239437225e-10 2.1034191055591128e-10 7.7515673257977369e-07 -0.0017404700107647398 1.6326052413850463e-19 -1.1039580157061431e-19 -4.8321256477734253e-19 -1.2239536378120973e-29 -65.754724465942374 -163.62432261291517 139.28801968872077 2018.1238718776010 0.0000000000000000 0.0000000000000000 0.0000000000000000 0.0000000000000000 3.0804895500701277 3.1624657649664121 1.0819825564679142 1.0432077802280277 770.80196347555841 795.26029535067869 1.0401909523913961 
-87.996918859975480 -164.04734096072752 121.39753746162478 -87.996918859975437 -164.04734096072752 121.39753746162478 -303.28985053433018 -2.5076033213671294e-14 8.3651949596161710e-17 9.4524943423786025e-15 0.0000000000000000 9.9068095393839408e-10 2.1034191055591123e-10 9.6735288224181204e-07 -0.0033640966196481748 8.8250423097300581e-19 3.3554413701892754e-19 -9.6215269997411118e-19 0.0000000000000000 -87.333945182495114 -163.62432261291505 123.64986896362312 1549.0027140339625 0.0000000000000000 0.0000000000000000 0.0000000000000000 0.0000000000000000 3.0837608528354576 3.1691515177652581 1.0854034993099757 1.0418179577669719 741.50056699265031 781.41694782983529 1.0418234985141381 
-87.996918859975480 -141.89858575357687 121.39753746162478 -87.996918859975409 -141.89858575357687 121.39753746162478 -198.27314320753635 -1.1073015417772183e-14 -6.4045449761043662e-15 2.4697260673192937e-14 0.0000000000000000 9.9068095393839428e-10 1.5406481645996453e-10 9.6735288224181204e-07 0.00017016076786148879 5.7297388817361937e-19 -1.4056144316942286e-18 -4.5693584313515999e-19 0.0000000000000000 -87.333945182495086 -141.58874659118649 123.64986896362313 1389.1126189879024 0.0000000000000000 0.0000000000000000 0.0000000000000000 0.0000000000000000 3.0856713033386298 3.1727706404402869 1.0870867749427975 1.0436026729546808 688.79786127582815 845.42016847913681 1.0426533108769465 
-45.575111245929669 -110.48301779884069 44.454246773587244 -45.575111245929676 -110.48301779884066 44.454246773587229 -1477.8528365760735 4.9876977783132197e-14 1.1501370075869489e-14 -5.6797706580518011e-14 -1362.0934024491255 5.6406959658694689e-10 7.4246553349865962e-11 1.8866943252149326e-06 0.00075900499494753622 -2.1974832839500369e-20 1.2326989320660160e-20 3.6401963385848888e-20 0.00085781837535294479 -45.197633928000002 -110.33371083599998 48.847122559999995 1069.0094105005942 0.0000000000000000 0.0000000000000000 0.0000000000000000 0.0000000000000000 3.0819646532492277 3.1654529597939733 1.0834963396721891 1.0409042576770220 3254.6782974652897 3255.9448055242224 1.0409112742578301 
-57.581915500067979 -98.921485562130343 41.758155693448302 -57.581915500067971 -98.921485562130343 41.758155693448309 -1193.3731155227915 1.2354315733732158e-14 7.4280127922988015e-15 -3.0722736634001104e-14 -596.20514461306232 6.8481451065416376e-10 4.4873049720450808e-11 1.9189080253667612e-06 0.00063187675562893862 -7.4016059861226155e-21 2.4305976398776839e-21 1.4179106324732514e-20 0.00057685258821209317 -57.123633070400032 -98.831257531200038 46.226036100800002 1475.5774262919704 0.0000000000000000 0.0000000000000000 0.0000000000000000 0.0000000000000000 3.0819465587725059 3.1654189735253864 1.0834805209149037 1.0409042576770229 2415.9404651826026 2417.5618622185434 1.0409036893223982 
-60.618358645443166 -105.71192067396764 53.108794934971755 -60.618358645443180 -105.71192067396761 53.108794934971769 -817.64470898458592 2.4425101261796089e-15 3.9742145125774154e-14 -3.9204222879446866e-14 -168.57142460665531 7.1535291579216686e-10 6.2127136768452829e-11 1.7832871979095444e-06 0.00042532631336953043 5.3077030277173794e-21 -2.7973840467453110e-20 3.9702976956196141e-20 0.00042945028273061724 -60.139641125599979 -105.58699381199996 57.260903223199996 1724.6135661994952 0.0000000000000000 0.0000000000000000 0.0000000000000000 0.0000000000000000 3.0819257199765580 3.1653914399491776 1.0834741719487029 1.0409042576770227 1977.7994696487585 1968.1465282200372 1.0409007502724759 
-19.608746010820028 -88.151248954412324 53.559507041572189 -19.608746010820028 -88.151248954412296 53.559507041572182 -1091.1362712066928 -1.7071061617646412e-15 -2.0728348414638372e-14 -8.1556426190410229e-14 -1080.3180794388024 3.0293298425299047e-10 1.7505719096533315e-11 1.7779019554353681e-06 0.00057128830407299582 -5.3191546411845841e-21 7.1137744270121467e-21 2.5022209844413954e-20 0.00061985748394006491 -19.406020858399991 -88.116056368799974 57.699076624800000 1439.6451283969650 0.0000000000000000 0.0000000000000000 0.0000000000000000 0.0000000000000000 3.0819012312520764 3.1653301582882749 1.0834371359421233 1.0409042576770227 2383.5416445053424 2383.6515316343148 1.0408829610074848 
-59.246018648688832 -179.08820164628267 75.218150610055702 -59.246018648688839 -179.08820164628273 75.218150610055702 -4916.2813741253631 1.6880657246002520e-14 -1.2685424080986374e-13 -1.2855655866713087e-13 -5454.9418172528913 7.0154745901440652e-10 2.4856944280671200e-10 1.5191180073870214e-06 0.0020323576153152881 -3.2829412910839147e-20 1.6902856477084529e-19 1.5325888132142170e-19 0.0024893464835914554 -58.776536899199989 -178.58832514800000 78.755181813599989 1584.4809985467919 0.0000000000000000 0.0000000000000000 0.0000000000000000 0.0000000000000000 3.0843070789625049 3.1702172402937925 1.0859188893433951 1.0409042576770224 9596.9854037657387 9614.8325951162442 1.0420784747647962 
-75.039145287759766 -185.47532771346758 68.501891315778565 -75.039145287759766 -185.47532771346758 68.501891315778579 -3766.7680395632938 2.8973763219398179e-13 -2.2896777565369893e-13 3.5148890126125278e-15 -3768.2121515700569 8.6036841540071397e-10 2.6478480519287473e-10 1.5993658859514426e-06 0.0016055920288712434 -2.2157612833115968e-19 1.7015265082770731e-19 -3.7775248994769131e-21 0.00099321150775308906 -74.463376691600018 -184.94281327599995 72.225767276240006 1182.3928641350060 0.0000000000000000 0.0000000000000000 0.0000000000000000 0.0000000000000000 3.0829584883880869 3.1674571628492632 1.0845067107124231 1.0409042576770229 7131.3303984016238 7132.4831033055953 1.0413968944288621 
-70.280516600148474 -212.25783726808396 83.279501449188928 -70.280516600148488 -212.25783726808396 83.279501449188942 -4977.5627003958134 1.6418092812010745e-14 3.0121616905015500e-14 -1.5837289492169360e-13 -5206.3414030539698 8.1252329864334172e-10 3.3285035838659388e-10 1.4227985714043714e-06 0.0020546341306018939 -2.1982368193952501e-20 -2.2991266518325711e-21 5.3258804842279915e-20 0.0029090475733954606 -69.736773305200003 -211.58846536000007 86.592267764799999 1391.6778601551057 0.0000000000000000 0.0000000000000000 0.0000000000000000 0.0000000000000000 3.0810835392177798 3.1636886398525808 1.0826133953436996 1.0409042576770224 10140.746727267973 10136.478158906632 1.0404874095988446 
-87.473293806967803 -207.92112811906350 87.101694425320687 -87.473293806967817 -207.92112811906352 87.101694425320687 -3065.9770334870227 2.5538228393908740e-13 -1.2970583242904279e-13 -1.0015132077612312e-13 -3256.7005579191923 9.8542182747074512e-10 3.2181896036931334e-10 1.3771298776887877e-06 0.0013297062322468445 -1.9797284356217264e-19 1.0397344704386797e-19 1.0400248757969388e-19 2.6249945421349764e-05 -86.813844096400004 -207.27391660800001 90.308128229600001 1955.0875990986240 0.0000000000000000 0.0000000000000000 0.0000000000000000 0.0000000000000000 3.0836615623585568 3.1689144256875577 1.0852617015252810 1.0409042576770227 5826.1074284335782 5834.5360214397460 1.0417629614389177 
-74.948773303430116 -213.25983559639732 97.746794077083237 -74.948773303430116 -213.25983559639729 97.746794077083237 -3623.7251683625263 -5.5007423346417488e-14 2.6117329449725911e-14 3.8326594829904411e-14 -4397.0556413553095 8.5946957883997754e-10 3.3540853427993516e-10 1.2499390384945741e-06 0.0015326454642643167 1.3793931443465219e-20 -1.6814556561654093e-20 1.9303536543209636e-20 0.0015115837881219422 -74.373612905599998 -212.58534351999998 100.65708370800000 988.41240310934302 0.0000000000000000 0.0000000000000000 0.0000000000000000 0.0000000000000000 3.0818496140431941 3.1652486481243147 1.0834076541246496 1.0409042576770222 8356.4519642007417 8358.3881044394948 1.0408716979556725 
-66.271487220513364 -186.19609616787818 105.31188773732195 -66.271487220513350 -186.19609616787807 105.31188773732185 -1905.7581165633990 5.3776627592123426e-14 -1.3321962061339045e-13 -7.9873638814763796e-14 1.7326739344840394e-28 7.7220749239437205e-10 2.6661900465185790e-10 1.1595490327920288e-06 0.00076585094171413006 1.1434328218145337e-20 6.9393439966888452e-20 -2.1948334770161137e-19 -3.0531243039583528e-29 -65.754724465942374 -185.65989863464350 108.01171823852535 1808.0980320372519 0.0000000000000000 0.0000000000000000 0.0000000000000000 0.0000000000000000 3.0807366590789074 3.1628703674143579 1.0821398016876600 1.0405271054065670 3564.7224891065589 3542.8772590734270 1.0402512380086268 
-84.098092226937993 -209.01341951707519 106.35405501748059 -84.098092226937993 -209.01341951707516 106.35405501748060 -2014.9143560667660 2.3609603803979700e-13 -1.5896677412722513e-13 -2.1140956523053969e-13 -1701.6733825453557 9.5147653644822583e-10 3.2461450194531954e-10 1.1470969107918452e-06 0.00088182054817568622 -1.7907764461018969e-19 1.1611925070438554e-19 2.2741643020243810e-19 0.0021819941692483150 -83.461357431600007 -208.36062644399999 109.02489266960001 1287.0831768928649 0.0000000000000000 0.0000000000000000 0.0000000000000000 0.0000000000000000 3.0830797891479480 3.1677503622575398 1.0846794347903994 1.0409042576770229 3849.5053552838476 3888.1326771221875 1.0414790252184167 
-41.911663293761485 -130.29682711530003 61.845602030102704 -41.911663293761485 -130.29682711530000 61.845602030102697 -756.46900141404535 3.1441913669206823e-14 -2.1287670268978001e-14 -1.6526720070113977e-14 -1062.3505707120491 5.2722667898130748e-10 1.2458273301874101e-10 1.6788972159176296e-06 0.00039170231381418895 -2.6097119186479747e-20 2.2263176579404378e-20 7.9079599641329076e-21 -6.0281947790075218e-05 -41.558840772800004 -130.04627243999997 65.754654395919971 2180.9238908936368 0.0000000000000000 0.0000000000000000 0.0000000000000000 0.0000000000000000 3.0822518105430747 3.1659974681992198 1.0837528717406675 1.0409042576770227 1985.2702171303283 1986.9844482523006 1.0410337923852420 
-23.013738417020566 -134.71826267663926 51.715113560708062 -23.013738417020566 -134.71826267663926 51.715113560708062 -1348.1240052948847 1.7311702074397727e-15 -1.5527578731483484e-14 2.3436889799087187e-14 -1564.8473758115686 3.3717567626823092e-10 1.3581707980492297e-10 1.7999393220335946e-06 0.00070194778106810751 -7.8891780726893108e-21 1.9013913601896759e-21 -9.3209340407154281e-21 0.00075482184260464256 -22.788097858800000 -134.44511465599999 55.905993737599999 935.86986824075086 0.0000000000000000 0.0000000000000000 0.0000000000000000 0.0000000000000000 3.0817043383002418 3.1649387168278671 1.0832427511676241 1.0409042576770224 2932.0384605120339 2930.8839398227788 1.0407903074271971 
-11.171713802512496 -103.71717032959835 58.095256028249203 -11.171713802512498 -103.71717032959833 58.095256028249210 -1187.8048071733772 1.6664957818815360e-14 -5.4044252001106570e-14 -5.3301441273132066e-14 -939.19872786867700 2.1808523043009842e-10 5.7056970259594651e-11 1.7237074692033616e-06 0.00061293785388569363 -1.0298405347928036e-20 2.2687968353068665e-20 1.1848279061612126e-20 0.00045485283807984917 -11.025769398400001 -103.60243655599999 62.108642139439993 1284.9349949311236 0.0000000000000000 0.0000000000000000 0.0000000000000000 0.0000000000000000 3.0818518062312283 3.1652408512204087 1.0833974783515041 1.0409042576770224 2651.1454362279396 2645.7166668580476 1.0408641094382349 
-29.261945431902092 -141.06991309679535 66.285717905678865 -29.261945431902088 -141.06991309679532 66.285717905678879 -914.93500067208049 2.7583051422099159e-15 3.3046951619499084e-14 -6.0056975174106228e-14 -734.71791575955331 4.0001116308197027e-10 1.5197149094703377e-10 1.6258453836570652e-06 0.00045368329682963214 -6.4293302959304945e-22 -4.6244503450714334e-21 2.3167334123171214e-20 0.00054188951182421836 -28.994254794799993 -140.76430841599998 70.071247290159988 2176.9829965296321 0.0000000000000000 0.0000000000000000 0.0000000000000000 0.0000000000000000 3.0826312078550981 3.1667886769437592 1.0841649689092734 1.0409042576770227 2230.4313480554661 2248.9911950446367 1.0412297333010356 
-104.17826590144389 -194.63323390377673 90.940784994113542 -104.17826590144388 -194.63323390377673 90.940784994113542 -1022.9361876267583 -2.3398021325168159e-14 5.1757611644251650e-16 -4.0644870629826804e-14 -1483.0437239702153 1.1534150023972956e-09 2.8805774432427711e-10 1.3312592637149123e-06 0.00057318780520419148 -2.8134721896950010e-20 3.8464880638971779e-20 -7.4064111016680632e-20 0.0013367626605349950 -103.40639267600000 -194.05392295999994 94.040416199999996 2662.2783756828549 0.0000000000000000 0.0000000000000000 0.0000000000000000 0.0000000000000000 3.0817928706160740 3.1651221562059360 1.0833374394998481 1.0409042576770224 1993.1221311216091 1990.9431737065665 1.0408358405324822 
-83.138779499886468 -162.71760579436844 74.237583170887376 -83.138779499886425 -162.71760579436844 74.237583170887333 -1258.1289476178388 1.7194567056947331e-14 3.6666241460145996e-16 3.2359020539093694e-15 -1538.2343053199447 9.4183191801100463e-10 2.0697238367617388e-10 1.5308341216879737e-06 0.00077263157526110294 -1.1563860004940723e-19 4.8721542189496567e-20 -6.8516952375516025e-20 0.0021549623748378303 -82.508500824799995 -162.30138233600007 77.801893530400037 2229.3857910936085 0.0000000000000000 0.0000000000000000 0.0000000000000000 0.0000000000000000 3.0837706608245559 3.1691003216240530 1.0853373744185897 1.0409042576770222 2631.3448183743831 2631.6963779330540 1.0417970457941725 
-28.251988912217815 -125.28701934821389 125.41894989270050 -28.251988912217822 -125.28701934821393 125.41894989270043 -53.697293386124727 -4.2187274991190154e-15 -8.9739065270570334e-15 6.6570334454572681e-15 -4.4709573009175231e-29 3.8985320527373801e-10 1.1186424009324013e-10 9.1930384460425774e-07 0.0021081700435229321 -1.2203768938337481e-18 8.7229161854297937e-19 4.8053821340716001e-19 7.2241584682897914e-30 -27.991095225219734 -125.06206457489009 127.55940664489751 1124.7619503421174 0.0000000000000000 0.0000000000000000 0.0000000000000000 0.0000000000000000 3.0769296039318599 3.1550891701726722 1.0781683964294755 1.0411183290821078 157.52324832008807 173.01227013002367 1.0383695012687257 