# For a description of the Tecplot format see the Tecplot User's guide.
#
Variables=x,y,z,s_u,s_v,s_w,s_p,mono_f_vel_u,mono_f_vel_v,mono_f_vel_w,const,u_nu,v_nu,w_nu,p_nu,x_nu,y_nu,z_nu,const,u_ref,v_ref,w_ref,vol_ref,x_ref,y_ref,z_ref,const,I1,I2,I3,J,p1,p2,p3
Zone f=fepoint, n=356, e=1130, et=brick, c=black
-66.7953 -97.6854 85.8935 -66.795303731367980 -97.685418635497641 85.893450062095312 -153.37833881943291 -1.1331344789404096e-15 6.3416165615732130e-16 1.4468783567917244e-15 1.0963608002300616e-30 1.6961524101910544e-08 9.1071428176547908e-10 3.0163684806794319e-05 0.0010460082405391292 6.8798966637658891e-21 -4.1929042622298223e-21 -8.4319577854183426e-22 -1.7887352297612644e-31 -65.754724465942431 -97.517594547729473 92.373562431030237 2074.8615187338191 0.0000000000000000 0.0000000000000000 0.0000000000000000 0.0000000000000000 3.1694598280222457 3.3453381326410363 1.1759474568821517 1.0844482845501633 1205.3400970690561 1205.2007591497274 1.0844111125561466 
-76.924015546891752 -131.06920430659216 71.609616355349516 -76.924015546891738 -131.06920430659216 71.609616355349530 -153.07129932610957 -2.2657370846324209e-15 -2.0022935624523934e-16 9.7339182462442388e-17 -144.23656150341097 1.9183738403372175e-08 2.7621708253988686e-09 3.3863085270979809e-05 0.0010458190013037034 1.2824823713956104e-20 6.7553634795990655e-22 -1.9942496093894235e-22 0.0010165754423452215 -75.747104543999981 -130.56019973999997 78.884476808000016 2128.8259272129790 0.0000000000000000 0.0000000000000000 0.0000000000000000 0.0000000000000000 3.1695098687340670 3.3454447775510157 1.1760042053023372 1.0844482845501640 1210.5578385714869 1209.2283345944563 1.0844372761498688 
-64.431031067061951 -122.21311396768233 63.515410313405233 -64.431031067061951 -122.21311396768235 63.515410313405241 -144.30864819606256 6.7458156357023450e-16 6.8391525806984834e-17 1.7761546392563250e-16 -129.51724167561869 1.6442807920791225e-08 2.2710190394903403e-09 3.5959420904063677e-05 0.0010365661782579306 -3.8938561084209986e-21 -5.5453362609481901e-21 2.4224922602102556e-21 0.00089147869939539015 -63.422274742800013 -121.79461816400000 71.240629883439979 1237.7701333319521 0.0000000000000000 0.0000000000000000 0.0000000000000000 0.0000000000000000 3.1696056160237123 3.3456325775247153 1.1760961090594453 1.0844482845501631 1177.7805319818951 1178.3266549549153 1.0844796294978856 
-57.061886286347473 -132.60423973339383 69.234399374122845 -57.061886286347473 -132.60423973339383 69.234399374122845 -131.61515051023662 1.5532013791631127e-15 4.2157664773574024e-16 -1.0702931033424836e-15 -138.60648318978045 1.4826037203485853e-08 2.8472947333213483e-09 3.4478247773250821e-05 0.00096890057614213159 -5.4388188447918160e-21 8.1305761446298161e-22 8.0880901654272348e-21 0.0011594554216748066 -56.152318124399997 -132.07954718800002 76.641416164000006 2090.5778096190215 0.0000000000000000 0.0000000000000000 0.0000000000000000 0.0000000000000000 3.1693859682067411 3.3451951946147647 1.1758785473060309 1.0844482845501631 1169.7542535241698 1168.7820222392509 1.0843793962411021 
-124.71808142734982 -110.68811426382422 82.540771006756415 -124.71808142734980 -110.68811426382422 82.540771006756401 -187.01393430695214 -1.2841023289640177e-16 3.3213202173482964e-16 -1.8358648886300288e-15 -193.09888737196340 2.9669664752818299e-08 1.6318369988610471e-09 3.1032002278053028e-05 0.0011434744678276137 -7.8232983440584220e-22 -2.8378759830481144e-21 3.3632463074441910e-21 0.0011529669464127282 -122.89786571200003 -110.38740333199999 89.207425400000020 2092.2379289329847 0.0000000000000000 0.0000000000000000 0.0000000000000000 0.0000000000000000 3.1695654944735852 3.3455542477828866 1.1760579709933476 1.0844482845501640 1277.4642081411841 1276.8069002630450 1.0844620679873676 
-124.58828423440518 -128.99188959087093 87.067131888388701 -124.58828423440515 -128.99188959087090 87.067131888388730 -177.74357184214270 -1.7692641355669316e-16 2.2051917898380467e-16 -1.7386058528452986e-15 -188.26791980732833 2.9641187754281262e-08 2.6469685332486392e-09 2.9859710453550292e-05 0.0011084465429577800 -3.1911449148408587e-22 -2.7940575312206029e-21 1.6290552142422771e-21 0.0010474590346144423 -122.76981557999994 -128.50411506799998 93.481940963999989 2295.0048277193882 0.0000000000000000 0.0000000000000000 0.0000000000000000 0.0000000000000000 3.1695834748322147 3.3455860273224420 1.1760716840567829 1.0844482845501635 1256.7769165069280 1256.3319894669692 1.0844683667150219 
-88.668942057186186 -119.94852236984168 102.45297257361901 -88.668942057186129 -119.94852236984164 102.45297257361895 -154.52485463575064 -6.3572059873888120e-16 9.7732897701671781e-16 -1.7219468592730610e-15 -5.4141027815107279e-30 2.1760563823081117e-08 2.1454208409821267e-09 2.5874898859967743e-05 0.0010292561466374711 4.7838994677798886e-21 -6.1724081571886732e-21 3.5314751806684970e-21 7.4812726040356021e-31 -87.333945182495114 -119.55317056945796 108.01171823852533 1853.2119812635015 0.0000000000000000 0.0000000000000000 0.0000000000000000 0.0000000000000000 3.1694479720463948 3.3453280144042741 1.1759494740257355 1.0844482845501635 1216.0311013303169 1227.1271268226926 1.0844120686009833 
-123.70337113936195 -119.33840781068169 101.42152220650959 -123.70337113936195 -119.33840781068169 101.42152220650961 -162.94222703683101 -8.0312281657621872e-17 5.7725885724962733e-16 -8.7896230443089599e-16 -160.66439663951442 2.9447043276009662e-08 2.1115852399944397e-09 2.6142036386289643e-05 0.0010550385645255269 -7.1507069609045040e-23 -4.0600871172115963e-21 2.7074991847503279e-21 0.0010602524265991961 -121.89681335200000 -118.94929134799999 107.03765745040002 1571.7251237143605 0.0000000000000000 0.0000000000000000 0.0000000000000000 0.0000000000000000 3.1695207903703553 3.3454518277032936 1.1760000073591892 1.0844482845501628 1227.1130469619218 1212.9740639465469 1.0844353399223936 
-44.921665405549710 -164.47472983852984 119.01248970330130 -44.921665405549703 -164.47472983852990 119.01248970330130 -102.15578415597611 2.2383807454891251e-15 -2.5384613153900673e-15 9.7530824906299948e-16 0.0000000000000000 1.2162498258527776e-08 4.6148357357722611e-09 2.1586114314686707e-05 0.00081739690129874947 -1.6259291516939274e-20 1.7928522374154109e-20 -7.2446663968297685e-22 0.0000000000000000 -44.175503749389662 -163.62432261291502 123.64986896362305 1288.7765825848380 0.0000000000000000 0.0000000000000000 0.0000000000000000 0.0000000000000000 3.1692213011405745 3.3448324176511766 1.1756796403799907 1.0845968048183887 1107.8704998967874 1121.2859615138982 1.0842877765984456 
-15.832856201913559 -144.51114896794081 132.15696326583139 -15.832856201913559 -144.51114896794076 132.15696326583137 -103.07591152490664 5.3691944734256501e-16 -1.5722023458743580e-15 7.4739023336826524e-16 -103.77094914013357 5.7804718234244490e-09 3.5076744842044154e-09 1.8181799148919708e-05 0.00081968415830079835 -2.3827382563709173e-21 1.1410656468898879e-20 -2.6305752677318079e-21 0.00080551407153703651 -15.478227839600008 -143.86476845600004 136.06298808800005 1207.7015194609139 0.0000000000000000 0.0000000000000000 0.0000000000000000 0.0000000000000000 3.1686407126227558 3.3436448784108559 1.1750724808756963 1.0843890556174964 1120.4614348371867 1120.6056718425332 1.0840076835133556 
-44.921665405549710 -164.47472983852984 135.57200683298356 -44.921665405549696 -164.47472983852995 135.57200683298367 -124.78618235651354 2.0845852666145297e-16 -1.1861792254833887e-15 1.0177844889734294e-15 0.0000000000000000 1.2162498258527776e-08 4.6148357357722611e-09 1.7297329758747537e-05 0.00090795126317669609 -1.5005898099668379e-21 9.9256570643599590e-21 -4.3171121646864149e-21 0.0000000000000000 -44.175503749389669 -163.62432261291511 139.28801968872074 2260.0113226803110 0.0000000000000000 0.0000000000000000 0.0000000000000000 0.0000000000000000 3.1693573042762222 3.3451257367188849 1.1758374481762415 1.0844271696710921 1164.0757358225769 1158.8776436774688 1.0843604021332280 
-6.1055731645644995 -162.28677575354070 126.18721621771510 -6.1055731645645004 -162.28677575354067 126.18721621771510 -138.91776989824311 1.4867020174326610e-15 -1.2997539088941371e-15 6.6472535355088540e-16 -146.46697336392160 3.6463252139906643e-09 4.4934974630095334e-09 1.9727916633627274e-05 0.00094674659086750720 -8.5336563281189001e-21 9.9793214102341278e-21 -2.5868698846887522e-21 0.00093040156608745369 -5.8818733370400009 -161.45872929999999 130.42539591680000 1840.5999298976626 0.0000000000000000 0.0000000000000000 0.0000000000000000 0.0000000000000000 3.1696576239221601 3.3457451261923690 1.1761568408176897 1.0844482845501637 1190.3069717194589 1189.5224409496518 1.0845076452707794 
-10.057561316529437 -107.37582912132605 181.84785830865874 -10.057561316529435 -107.37582912132606 181.84785830865874 -154.78897229421469 -3.5514542668565006e-16 2.3650061968523201e-16 6.8570656274100192e-16 -156.55570492119276 4.5133830284260767e-09 1.4481403853849883e-09 5.3122485841328171e-06 0.00097719321751631497 1.6226009549952998e-22 -2.3606816112589011e-21 -7.4593138150917649e-22 0.00099684112018516200 -9.7806680107999995 -107.10896956400003 182.98909712000000 1021.2952016557671 0.0000000000000000 0.0000000000000000 0.0000000000000000 0.0000000000000000 3.1695366004557926 3.3454944175365062 1.1760270010901355 1.0844482845501637 1215.5296639155838 1215.3848282263627 1.0844477842279172 
-17.948876570511491 -108.91987408510695 192.86570769210695 -17.948876570511491 -108.91987408510695 192.86570769210695 -161.60229316149531 -5.6637789410105733e-16 2.7241053092304247e-16 3.4356681156747324e-16 -165.12650781389792 6.2447203519333511e-09 1.5337838776829930e-09 2.4587123395036770e-06 0.00098049457888600851 3.3798342181960280e-22 -2.8005110228810818e-21 -4.0365662034754026e-22 0.0010094153564719659 -17.565766725200003 -108.63723447200002 193.39391677600000 1230.2822850381203 0.0000000000000000 0.0000000000000000 0.0000000000000000 0.0000000000000000 3.1695300396793304 3.3454807182443433 1.1760198515582143 1.0844482845501642 1230.9554213215029 1230.6916661381235 1.0844444864035616 
-44.921665405549710 -119.94852236984168 168.69104109234814 -44.921665405549781 -119.94852236984177 168.69104109234826 -156.88280733072912 6.1741002273034497e-17 7.5730400226433931e-16 1.0411146561332677e-15 0.0000000000000000 1.2162498258527776e-08 2.1454208409821263e-09 8.7197606664091154e-06 0.00098160620641218692 2.0514775846683688e-22 -4.8392197132901866e-21 4.9778039468940016e-22 0.0000000000000000 -44.175503749389591 -119.55317056945772 170.56432113891603 1872.3464537223574 0.0000000000000000 0.0000000000000000 0.0000000000000000 0.0000000000000000 3.1695763239714907 3.3455753694109083 1.1760682499104862 1.0844482845501633 1219.3286690148366 1220.3204991491843 1.0844668210880575 
-9.6026095762053298 -124.84247620715327 188.06956324441134 -9.6026095762053298 -124.84247620715327 188.06956324441131 -156.25230239298233 -2.7761398450920453e-16 -2.8258549608729664e-16 5.2212786010435048e-16 -156.12138977314268 4.4135683996415764e-09 2.4168375079014481e-09 3.7008760056522760e-06 0.00097374526247182079 -9.9543056735781546e-22 1.5363547666065183e-21 -9.1767309180737318e-22 0.00098208552669841486 -9.3318398883999993 -124.39710846400000 188.86462832000004 1016.3527334425750 0.0000000000000000 0.0000000000000000 0.0000000000000000 0.0000000000000000 3.1695271242058825 3.3454747616559466 1.1760168081628211 1.0844482845501662 1218.9421394260310 1218.6887448127657 1.0844430821325517 
-44.921665405549710 -164.47472983852984 102.45297257361901 -44.921665405549703 -164.47472983852992 102.45297257361896 -121.44311078882932 7.1214432176804740e-16 -3.4422372573487341e-15 -2.9236875834238563e-15 2.9462821501375562e-29 1.2162498258527778e-08 4.6148357357722594e-09 2.5874898859967743e-05 0.00088595859820573338 -4.5915817760294678e-21 2.2748845583912769e-20 4.9834968091224487e-21 -4.0493549273266927e-30 -44.175503749389662 -163.62432261291499 108.01171823852535 1450.3671205666894 0.0000000000000000 0.0000000000000000 0.0000000000000000 0.0000000000000000 3.1703607715527840 3.3472453633154249 1.1769555411263395 1.0847435802519390 1157.9637439323708 1170.1061027957369 1.0848757671156444 
-62.131459018362342 -161.77768949559731 79.147317696322176 -62.131459018362335 -161.77768949559731 79.147317696322190 -157.79860612265071 -1.1542025336531035e-15 -2.9401748339168073e-15 -7.3298612412135855e-16 -162.04479626253911 1.5938289049666210e-08 4.4652460617911061e-09 3.1910879981111855e-05 0.0010025198413713089 6.6207739151418545e-21 1.7299893598891590e-20 7.4076719445245544e-21 0.0010887337140047940 -61.153654769600031 -160.95484587600001 86.002782780800032 1645.6757988676138 0.0000000000000000 0.0000000000000000 0.0000000000000000 0.0000000000000000 3.1689227135984912 3.3442718426771321 1.1754186916562535 1.0843126078893501 1226.4496973702621 1226.0478447358944 1.0841672859207203 
-44.979640504449655 -168.89721529106436 76.260291416213946 -44.979640504449655 -168.89721529106436 76.260291416213946 -171.73051465039524 8.7606076849366445e-17 -3.0236764286223196e-15 -4.8436819053569971e-16 -152.82963376811355 1.2175214419984925e-08 4.8601073165954745e-09 3.2658597046264504e-05 0.0010432728552179215 9.9086913330369668e-23 1.8498236750644783e-20 5.2308552455885536e-21 0.0010546407102084809 -44.232698507600013 -168.00161050399998 83.276389748800028 1737.4139093181343 0.0000000000000000 0.0000000000000000 0.0000000000000000 0.0000000000000000 3.1695133700697178 3.3454337284138442 1.1759892702630228 1.0844482845501628 1244.8040443374068 1243.1974837005059 1.0844303974936973 
-44.921665405549710 -186.73783357287391 102.45297257361901 -44.921665405549689 -186.73783357287380 102.45297257361892 -177.06811845959822 -1.0300424280455153e-16 -1.5252831378171026e-15 -1.3507307362088095e-15 -2.1645969948347367e-30 1.2162498258527776e-08 5.8495287502680071e-09 2.5874898859967750e-05 0.0010603977220175020 1.5016250500237901e-21 1.0778093949577120e-20 5.7918408054042534e-22 2.9976236112771810e-31 -44.175503749389676 -185.65989863464350 108.01171823852533 1616.4576808433910 0.0000000000000000 0.0000000000000000 0.0000000000000000 0.0000000000000000 3.1693558108719375 3.3451202195417267 1.1758332966518330 1.0844117833769622 1256.9109721058198 1255.9678455148237 1.0843584590378275 
-88.668942057186186 -142.21162610418577 135.57200683298356 -88.668942057186129 -142.21162610418571 135.57200683298367 -148.09630852952276 -5.3873150848117238e-16 -2.7165215145589264e-16 4.7314260582738084e-16 0.0000000000000000 2.1760563823081114e-08 3.3801424992319085e-09 1.7297329758747537e-05 0.00099032067022658782 3.8148071042372895e-21 1.9492241373638911e-21 -8.6071090316947064e-22 0.0000000000000000 -87.333945182495100 -141.58874659118649 139.28801968872074 1877.7986991733408 0.0000000000000000 0.0000000000000000 0.0000000000000000 0.0000000000000000 3.1691340068984180 3.3446514449222389 1.1755860775741740 1.0842480575388289 1204.0783521043081 1201.4719351755459 1.0842443190022022 
-66.795303731367952 -164.47472983852984 135.57200683298356 -66.795303731367923 -164.47472983852998 135.57200683298370 -137.19880323956173 -1.1789963736835155e-15 -4.3640232194901786e-16 8.1395202231470680e-16 -4.0117587708383227e-31 1.6961524101910541e-08 4.6148357357722603e-09 1.7297329758747534e-05 0.00095216252695768018 8.4767629419551190e-21 3.9079717088223950e-21 -2.2202223733065118e-21 4.8767834793855726e-32 -65.754724465942374 -163.62432261291517 139.28801968872077 2018.1238718776010 0.0000000000000000 0.0000000000000000 0.0000000000000000 0.0000000000000000 3.1690821625321322 3.3445515712691773 1.1755380661109545 1.0843630092912522 1184.0064994819859 1184.8291589949151 1.0842223577307610 
-88.668942057186186 -164.47472983852984 119.01248970330130 -88.668942057186129 -164.47472983852995 119.01248970330123 -154.21060462390034 -8.4042987066509204e-16 -6.0460422421911924e-16 -4.8369846862737436e-16 0.0000000000000000 2.1760563823081111e-08 4.6148357357722611e-09 2.1586114314686711e-05 0.0010083105220943611 5.6284162832508179e-21 3.9432378007671288e-21 7.3452906602019344e-22 0.0000000000000000 -87.333945182495114 -163.62432261291505 123.64986896362312 1549.0027140339625 0.0000000000000000 0.0000000000000000 0.0000000000000000 0.0000000000000000 3.1697300625609723 3.3458912238723295 1.1762304528587963 1.0844696545995200 1217.1011613160688 1214.3506762933275 1.0845415469684285 
-88.668942057186186 -142.21162610418577 119.01248970330130 -88.668942057186129 -142.21162610418571 119.01248970330120 -134.94618613946491 -2.2223739360104680e-15 -9.1222316816495598e-16 1.2698498140579526e-16 0.0000000000000000 2.1760563823081114e-08 3.3801424992319089e-09 2.1586114314686707e-05 0.00094843519129600960 1.5080549382237675e-20 5.7727573804786004e-21 6.8088826053301431e-22 0.0000000000000000 -87.333945182495086 -141.58874659118649 123.64986896362313 1389.1126189879024 0.0000000000000000 0.0000000000000000 0.0000000000000000 0.0000000000000000 3.1690812052604840 3.3444849646215751 1.1754711398838535 1.0844032689637764 1177.0004880588024 1188.6730524654702 1.0841917360336248 
-45.957741088842440 -110.63386736748599 39.802525418324095 -45.957741088842447 -110.63386736748596 39.802525418324088 -212.71084210488937 5.5543121515663406e-16 9.9980462911334968e-16 -1.3007754521800162e-15 -212.93681675892836 1.2389809539437024e-08 1.6288413950960035e-09 4.2100871386452354e-05 0.0012566139564435029 1.6388817284157363e-21 -2.3628974881944111e-21 6.3302598893052441e-21 0.0012165924234827995 -45.197633928000002 -110.33371083599998 48.847122559999995 1069.0094105005942 0.0000000000000000 0.0000000000000000 0.0000000000000000 0.0000000000000000 3.1695415317765812 3.3455043403405589 1.1760319910640027 1.0844482845501637 1316.7989034788932 1316.8451840359960 1.0844500856625634 
-58.046453435844604 -99.012645808689484 37.027010149127875 -58.046453435844583 -99.012645808689456 37.027010149127854 -233.07449706270802 -6.6834096329050889e-16 1.0791583870066603e-15 -1.7513367978783390e-15 -234.32959028240481 1.5042044304580671e-08 9.8432828554706475e-10 4.2819707982033606e-05 0.0013306210123704212 7.2202690674480522e-21 -1.7038133372837700e-21 5.9575985103208170e-21 0.0014119533262215362 -57.123633070400032 -98.831257531200038 46.226036100800002 1475.5774262919704 0.0000000000000000 0.0000000000000000 0.0000000000000000 0.0000000000000000 3.1695382417974445 3.3454974893862808 1.1760284258263816 1.0844482845501635 1354.7381190258229 1354.7379702429532 1.0844484429748045 
-61.103610608188411 -105.83813825204626 48.712028048583470 -61.103610608188426 -105.83813825204628 48.712028048583456 -201.69272634849315 6.3120162022163208e-17 3.2581993860095507e-15 -3.1496022412673529e-15 -150.25363166153031 1.5712778439480601e-08 1.3628679296218140e-09 3.9793380354424812e-05 0.0012236421020203996 6.8819671495360890e-21 -9.0671700831180344e-21 1.8848711767018033e-20 0.0015177116547184569 -60.139641125599979 -105.58699381199996 57.260903223199996 1724.6135661994952 0.0000000000000000 0.0000000000000000 0.0000000000000000 0.0000000000000000 3.1695302016009350 3.3454810176089023 1.1760199901227997 1.0844482845501637 1292.6922207026159 1292.5879862124862 1.0844445562964711 
-19.814238339870105 -88.186805141867524 49.176017690141364 -19.814238339870109 -88.186805141867552 49.176017690141364 -204.88806742863727 -4.9608906495042543e-16 3.7473256006949792e-16 -2.5321506116195344e-15 -207.29971573574844 6.6539765641859824e-09 3.8392489187799583e-10 3.9673210693536021e-05 0.0012308227500176386 1.1313838638081515e-21 -7.0221061716981694e-21 1.1223445296984463e-21 0.0012336915111363261 -19.406020858399991 -88.116056368799974 57.699076624800000 1439.6451283969650 0.0000000000000000 0.0000000000000000 0.0000000000000000 0.0000000000000000 3.1695342276333536 3.3454891871483103 1.1760241339065056 1.0844482845501635 1305.8334170593967 1305.7817866236876 1.0844464661182696 
-59.721908773803037 -179.59324275559999 71.472703576326793 -59.721908773803051 -179.59324275559996 71.472703576326793 -202.55636551414020 -4.1326639890389692e-16 -5.6815930191018662e-16 -7.9118249990584739e-16 -208.45806951819080 1.5409639370078668e-08 5.4533187965333232e-09 3.3898544598898177e-05 0.0011394537356670324 2.8855133394900013e-21 8.6971565434560523e-22 6.4567310481401126e-21 0.0012455624037543737 -58.776536899199989 -178.58832514800000 78.755181813599989 1584.4809985467919 0.0000000000000000 0.0000000000000000 0.0000000000000000 0.0000000000000000 3.1697852286720680 3.3460130921922016 1.1762974608692045 1.0844482845501633 1303.5453670915645 1303.9946576130828 1.0845725312048518 
-75.622773063624606 -186.01334396978302 64.558589895053643 -75.622773063624621 -186.01334396978299 64.558589895053629 -210.85503787647065 -2.8793378942810152e-16 -4.8764374952964256e-16 -2.3494606486416986e-16 -211.88845206708405 1.8898248549392704e-08 5.8093690968874504e-09 3.5689245606818076e-05 0.0011730516150814144 8.9903993816568619e-22 5.7388489454280679e-22 2.0510461595566010e-21 0.0011446934526597500 -74.463376691600018 -184.94281327599995 72.225767276240006 1182.3928641350060 0.0000000000000000 0.0000000000000000 0.0000000000000000 0.0000000000000000 3.1695020808199210 3.3454111916907316 1.1759779732439566 1.0844482845501631 1318.2099658937498 1318.1919000322798 1.0844251559579408 
-70.831681932868619 -212.93412497547965 79.771533875193768 -70.831681932868619 -212.93412497547962 79.771533875193768 -205.84809873920884 5.7670682076720900e-17 1.1129268496187382e-16 -7.8528632100264838e-16 -205.56256003875734 1.7847101824175485e-08 7.3023843638608810e-09 3.1749212897835832e-05 0.0011494934299018851 1.2236451490417169e-23 2.9619293613641157e-22 1.6866487788077217e-21 0.0011550569246318364 -69.736773305200003 -211.58846536000007 86.592267764799999 1391.6778601551057 0.0000000000000000 0.0000000000000000 0.0000000000000000 0.0000000000000000 3.1695943931436346 3.3456256647892180 1.1761008001220348 1.0844482845501635 1306.0923357772765 1306.0408289355239 1.0844818435231214 
-88.141744935494799 -208.57502647322380 83.706324893649082 -88.141744935494813 -208.57502647322374 83.706324893649054 -201.05732457421735 4.4554604711266460e-16 -2.0964901242956574e-16 -9.2048490703518642e-16 -212.04077802614651 2.1644890130234625e-08 7.0606364088732221e-09 3.0730133003586964e-05 0.0011405730455100428 -1.6757393461072965e-21 1.2543797891302351e-21 -1.5995416985221208e-21 0.0011546940929982614 -86.813844096400004 -207.27391660800001 90.308128229600001 1955.0875990986240 0.0000000000000000 0.0000000000000000 0.0000000000000000 0.0000000000000000 3.1697141355579674 3.3458647790431377 1.1762201278162634 1.0844482845501635 1304.5046325473702 1304.2701254645358 1.0845368657897156 
-75.531784579123212 -213.94129637252854 94.665018701597006 -75.531784579123212 -213.94129637252854 94.665018701597006 -194.51010078731437 -5.0517706202044467e-17 4.6275718445067152e-17 -2.6271506208218496e-16 -198.04307061175325 1.8878294510971116e-08 7.3582276938211050e-09 2.7891917589784043e-05 0.0011153737430962061 2.8360283885194979e-22 -1.6662290321948938e-22 8.2577944001760688e-22 0.0011266951547914154 -74.373612905599998 -212.58534351999998 100.65708370800000 988.41240310934302 0.0000000000000000 0.0000000000000000 0.0000000000000000 0.0000000000000000 3.1697191320385429 3.3458895269421278 1.1762402180604770 1.0844482845501633 1291.9209570317159 1291.9951663969343 1.0845461571201949 
-66.795303731367952 -186.73783357287391 102.45297257361901 -66.795303731367923 -186.73783357287380 102.45297257361894 -179.39304402561910 1.2546657951922852e-16 -1.1202341534260149e-15 -1.4567891658622639e-15 -1.3909307435068037e-29 1.6961524101910538e-08 5.8495287502680071e-09 2.5874898859967743e-05 0.0010736055882323656 1.9774838405211621e-22 8.0330579317999207e-21 7.1422978221962165e-22 1.9105819075076853e-30 -65.754724465942374 -185.65989863464350 108.01171823852535 1808.0980320372519 0.0000000000000000 0.0000000000000000 0.0000000000000000 0.0000000000000000 3.1688529069281826 3.3440246899941726 1.1752388087264101 1.0842634021894999 1258.4341938716241 1257.9620149799807 1.0840841743001455 
-84.743518384073781 -209.67295710068478 103.52584107589080 -84.743518384073795 -209.67295710068476 103.52584107589078 -185.28832252106818 1.9485639978359473e-16 -2.0361012249850451e-16 -1.0897478842628034e-15 -182.31910143353863 2.0899328295742595e-08 7.1215303654170725e-09 2.5597034362334625e-05 0.0010923727556667157 -1.1108226603030757e-21 5.8062036141125068e-22 3.0459116536002242e-21 0.0010915969789048960 -83.461357431600007 -208.36062644399999 109.02489266960001 1287.0831768928649 0.0000000000000000 0.0000000000000000 0.0000000000000000 0.0000000000000000 3.1697794086702689 3.3460093980663013 1.1762997666175845 1.0844482845501635 1268.2019282927561 1269.0142813406103 1.0845735831783718 
-42.269301804366599 -130.54997046489319 57.706212879797746 -42.269301804366599 -130.54997046489322 57.706212879797739 -168.25070558262516 8.2217251556048069e-16 6.2750122745106569e-16 -1.6498275228598200e-15 -170.21773943518880 1.1580570530300704e-08 2.7333865171286220e-09 3.7463957301753226e-05 0.0010951441060699093 -1.3112585935271981e-21 5.1975911030603572e-22 1.0020911408388313e-20 0.0011963095981206500 -41.558840772800004 -130.04627243999997 65.754654395919971 2180.9238908936368 0.0000000000000000 0.0000000000000000 0.0000000000000000 0.0000000000000000 3.1695887254303607 3.3456023018428644 1.1760828112859121 1.0844482845501635 1245.5113761504581 1246.0676604076996 1.0844734980375930 
-23.242458944707398 -134.99423280091077 47.277290193041921 -23.242458944707401 -134.99423280091079 47.277290193041914 -190.77569455685372 5.3489976715686860e-16 2.7601353173252672e-16 -6.4460924868894500e-16 -191.73604678563638 7.4061221322363471e-09 2.9798453704543704e-09 4.0164966161881921e-05 0.0011692281597221945 -6.1506784729253510e-22 8.2703744995846578e-22 1.9435970504557868e-21 0.0011584695179318895 -22.788097858800000 -134.44511465599999 55.905993737599999 935.86986824075086 0.0000000000000000 0.0000000000000000 0.0000000000000000 0.0000000000000000 3.1695096042536970 3.3454377669300603 1.1759973020268986 1.0844482845501633 1278.6216688023489 1278.3013952827148 1.0844341062333667 
-11.319650332118671 -103.83308950662176 53.845385376753249 -11.319650332118671 -103.83308950662173 53.845385376753249 -188.80302757038544 -4.5680099742795567e-16 -2.0314880436485858e-16 -2.2895045112947442e-15 -186.08390618138398 4.7902838917757159e-09 1.2516724323674568e-09 3.8463881223194107e-05 0.0011650122771539864 3.4254000107288492e-22 -3.9620177425192315e-21 1.3402406927890703e-21 0.0011586738718662973 -11.025769398400001 -103.60243655599999 62.108642139439993 1284.9349949311236 0.0000000000000000 0.0000000000000000 0.0000000000000000 0.0000000000000000 3.1695249143355819 3.3454699266988968 1.1760141782740992 1.0844482845501635 1281.0323127313195 1280.8795787936772 1.0844418800255080 
-29.533290017545987 -141.37867521610224 62.277130198001650 -29.533290017545987 -141.37867521610224 62.277130198001650 -166.78291249310510 6.4497823063013263e-16 8.4815508518347589e-16 -1.8169354628689959e-15 -164.24831077662836 8.7863169240254280e-09 3.3339387917052932e-09 3.6280125703669341e-05 0.0010794705271916221 -1.8957335738061017e-21 1.0964006969893377e-21 9.0769679654237584e-21 0.0012050560198185397 -28.994254794799993 -140.76430841599998 70.071247290159988 2176.9829965296321 0.0000000000000000 0.0000000000000000 0.0000000000000000 0.0000000000000000 3.1696178932248289 3.3456642112497765 1.1761156180777261 1.0844482845501633 1235.5892797186045 1236.5440717911840 1.0844886055946121 
-104.96067511379081 -195.21853015733097 87.658511291210488 -104.96067511379080 -195.21853015733095 87.658511291210502 -192.81060883324710 -1.5367525829404831e-16 -6.9117861577325211e-18 -7.8154159839936581e-16 -200.28895243159403 2.5334935732646006e-08 6.3198862809699100e-09 2.9706547842067721e-05 0.0011233270691658297 5.0278544833920118e-22 -1.2018454651968172e-21 -7.3871893087422600e-24 0.0011127020981405464 -103.40639267600000 -194.05392295999994 94.040416199999996 2662.2783756828549 0.0000000000000000 0.0000000000000000 0.0000000000000000 0.0000000000000000 3.1696813392669969 3.3458073310838974 1.1761956621133562 1.0844482845501635 1285.4224403347621 1286.7643640077238 1.0845255958904829 
-83.777661411420368 -163.13812957946428 70.463249585719012 -83.777661411420411 -163.13812957946436 70.463249585719026 -196.30568657366373 -1.0549667520843498e-15 -9.3876543579460233e-16 -1.3800822929019512e-15 -193.68791180747385 2.0687424912013697e-08 4.5407110293993477e-09 3.4159985242254720e-05 0.0011409800495225772 3.9532984179312093e-21 3.1302223129322140e-21 1.1779579379881993e-20 0.0013476415038600276 -82.508500824799995 -162.30138233600007 77.801893530400037 2229.3857910936085 0.0000000000000000 0.0000000000000000 0.0000000000000000 0.0000000000000000 3.1697915445449865 3.3460277477218709 1.1763058081353568 1.0844482845501633 1290.7671754196863 1291.4163320509499 1.0845763955303021 
-28.516443770116357 -125.51429830342775 123.15236898572186 -28.516443770116350 -125.51429830342784 123.15236898572178 -85.796632341655126 -7.8379127634769680e-16 1.7438992219378367e-16 2.4445429597630403e-15 -5.2456078999069016e-30 8.5632240465205439e-09 2.4540948162510286e-09 2.0513918169484668e-05 0.00075620424282368446 7.1188486488645935e-21 -8.1244044679416630e-22 -5.7215979853459315e-21 6.6994190524423398e-31 -27.991095225219734 -125.06206457489009 127.55940664489751 1124.7619503421174 0.0000000000000000 0.0000000000000000 0.0000000000000000 0.0000000000000000 3.1693077197113508 3.3450000035672178 1.1757607369806777 1.0845241772641170 1084.1107911167717 1077.5794986018375 1.0843249223282223 