# For a description of the Tecplot format see the Tecplot User's guide.
#
Variables=x,y,z,s_u,s_v,s_w,s_p,mono_f_vel_u,mono_f_vel_v,mono_f_vel_w,const,u_nu,v_nu,w_nu,p_nu,x_nu,y_nu,z_nu,const,u_ref,v_ref,w_ref,vol_ref,x_ref,y_ref,z_ref,const,I1,I2,I3,J,p1,p2,p3
Zone f=fepoint, n=1339, e=6475, et=brick, c=black
-60.3946 -70.2701 173.444 -60.394626128208145 -70.270098369799726 173.44376855089038 -10.292078324559746 2.2706686550285971e-06 2.7927708213614206e-06 -2.5453689607408462e-06 -14.613317254049150 -6.7055033747820413e-10 1.9915846749540833e-11 -1.3697176690641302e-06 -0.0018651194306022044 -4.7859522839420485e-12 2.8684654890138334e-12 -4.8543066211607537e-12 -0.0018666861139546519 -58.668039002000000 -70.473359259200009 176.35421013599998 215.13583165143561 0.0000000000000000 0.0000000000000000 0.0000000000000000 0.0000000000000000 3.3260363576941860 3.6751956506818590 1.3496243820019200 1.1611366534782546 1183.2913405433467 1183.3818944372754 1.1617341395971008 
-66.846817494326842 -76.323340018200128 181.97252055505646 -66.846817494326842 -76.323340018200128 181.97252055505652 -11.702563860612514 -2.0371912076716648e-05 -1.9966739449540126e-06 -8.3166129497399525e-07 -13.380656995416651 -7.3156397606410906e-10 8.9437346417753344e-12 -9.6571108088028247e-07 -0.0018569253410975488 -2.5662031166658613e-11 9.9994366849925338e-12 -1.8140739637049024e-11 -0.0018583308986766587 -64.963123215600007 -76.414687385200040 184.02450960799996 253.42820447565578 0.0000000000000000 0.0000000000000000 0.0000000000000000 0.0000000000000000 3.3277508336077801 3.6789944438696192 1.3517231335776585 1.1611366534782528 1188.3957078432177 1188.4739329363165 1.1626399246047772 
-71.664597051586540 -71.401808629717209 174.42499501733349 -71.664597051586526 -71.401808629717195 174.42499501733349 -13.032664909290020 -4.3794218499571734e-06 1.0245454953410918e-06 -3.8020386045939019e-06 -18.506442915582863 -7.7712175583499743e-10 1.7869483670551748e-11 -1.3232370115190408e-06 -0.0018716301546900049 -3.0478267279910306e-12 2.0307342231438921e-12 -7.9467314685736339e-12 -0.0018716432759155975 -69.663592608799988 -71.584146237200002 177.23667228800005 218.29881668600640 0.0000000000000000 0.0000000000000000 0.0000000000000000 0.0000000000000000 3.3286500233284930 3.6808377457316657 1.3526678543556974 1.1611366534782521 1194.4606461936826 1194.4415088723040 1.1630473109834278 
-58.854081020179478 -87.848506501862374 168.23623873692108 -58.854081020179429 -87.848506501862317 168.23623873692114 4.0631060550826819 -3.6280040508595927e-06 1.3090464879686949e-05 2.0121878958895795e-05 0.0000000000000000 -6.5598776410880077e-10 -1.1924017329079106e-11 -1.6163981193528800e-06 -0.0018739664650898732 -1.1778611223938526e-11 -7.1169080036388344e-12 -2.2952456858139845e-11 0.0000000000000000 -57.165005282198301 -87.726774323660578 171.67083873969227 259.76550921814646 0.0000000000000000 0.0000000000000000 0.0000000000000000 0.0000000000000000 3.3193972658441724 3.6604607283765738 1.3414697008873215 1.1591885999592282 1137.1143437882392 1137.1202855889301 1.1582181223873278 
-91.379393131727312 -83.417737630044499 107.57225052316491 -91.379393131727298 -83.417737630044499 107.57225052316487 46.366779364113569 2.0474712448056460e-05 1.7450273992910785e-05 -1.3948438050806897e-05 0.0000000000000000 -9.6355906586964579e-10 -3.8946623703850491e-12 -4.4900484894583315e-06 -0.0021519106561819889 9.9719466457193343e-11 2.3291509375008702e-12 -7.0930943200786903e-11 0.0000000000000000 -88.898344731952406 -83.377922378373768 117.11292023788836 283.91631954144174 0.0000000000000000 0.0000000000000000 0.0000000000000000 0.0000000000000000 3.3259586357956907 3.6747443040190579 1.3492342069599419 1.1618382267589182 1067.6472350620027 1067.6490553756948 1.1615662319491735 
-100.29380191979780 -66.631162378942662 97.684211563975310 -100.29380191979782 -66.631162378942676 97.684211563975296 9.1492267841785022 1.0466757318753328e-05 2.2919400987127521e-05 -7.6183018969391337e-05 -1.3468850137742094 -1.0478565237725945e-09 2.6513014006468438e-11 -4.9584444461459043e-06 -0.0022838647895783572 7.3713290547140774e-12 3.3726663909133262e-11 -2.1502041775758965e-10 -0.0022797326238136327 -97.595692787999965 -66.901700632800015 108.22015140479995 322.25788568967050 0.0000000000000000 0.0000000000000000 0.0000000000000000 0.0000000000000000 3.3251497961933940 3.6733782231837679 1.3486938110393625 1.1611366534782535 1143.3156502964284 1143.3041900023743 1.1613325136498525 
-81.913082006325141 -67.272774161123792 98.123779183666713 -81.913082006325126 -67.272774161123820 98.123779183666713 1.9201702770950171 -6.9121226418524147e-06 1.8741250791997276e-05 -2.8384876576739005e-05 0.0000000000000000 -8.7404533610779822e-10 2.5349278232056352e-11 -4.9376221475938564e-06 -0.0022771946989269530 -2.1990114698766494e-11 -2.8662728638364568e-11 -2.0056679618938209e-10 0.0000000000000000 -79.662532843379708 -67.531450170133141 108.61547480962874 295.38956150422752 0.0000000000000000 0.0000000000000000 0.0000000000000000 0.0000000000000000 3.3229388602332097 3.6683179940343105 1.3458167546758233 1.1602753121073632 1149.7273864600136 1149.7340884553062 1.1600922084988783 
-97.098083096625132 -81.850340453026149 98.135825054977985 -97.098083096625089 -81.850340453026107 98.135825054977943 25.114336554670086 -9.4161922765535378e-06 2.9593582567456362e-05 -5.2172120360903374e-05 0.0000000000000000 -1.0176451348264948e-09 -1.0662581928500001e-12 -4.9370515426971906e-06 -0.0023140561239027514 -5.4002206584340193e-11 -6.5290527157078860e-11 -2.9235572754556308e-10 0.0000000000000000 -94.477787882002133 -81.839503548705352 108.62630821647583 293.80807890400462 0.0000000000000000 0.0000000000000000 0.0000000000000000 0.0000000000000000 3.3251325317493605 3.6728150723476323 1.3481219868454277 1.1609174353256069 1098.1599967936311 1098.1424247894608 1.1610864564174470 
-48.724190834127029 -126.82781524254422 131.50917540475461 -48.724190834127050 -126.82781524254418 131.50917540475450 37.716485427131367 1.8291045906488129e-05 -6.1502432193170980e-06 -6.9914717506774511e-06 0.0000000000000000 -5.6298806290376187e-07 7.9027971532610147e-08 -4.9794709319670135e-06 -0.0019084441926636450 4.3582199342584047e-12 -8.6669640493145544e-12 -7.1603398036286617e-11 0.0000000000000000 -47.292355390977058 -125.96433165720771 138.67232254046354 244.31333887135355 0.0000000000000000 0.0000000000000000 0.0000000000000000 0.0000000000000000 3.3261499698951420 3.6749009608697785 1.3491924797048804 1.1620213496451397 1099.7180727833472 1099.7133360167566 1.1615474912467147 
-35.316051117945761 -141.55033679955002 132.12854112954008 -35.316051117945783 -141.55033679955011 132.12854112954017 39.111794576387560 5.5874197001671534e-06 1.1623572371642026e-05 2.0788086166680472e-07 0.0000000000000000 -2.2348309134288431e-07 -5.2680425946707806e-08 -3.9124104652616046e-06 -0.0018383934627341980 8.3841126030989219e-11 -5.6809648059410534e-11 -1.2913590366308297e-10 0.0000000000000000 -34.196989160350306 -140.43319657724166 139.21506628885933 210.16870282748488 0.0000000000000000 0.0000000000000000 0.0000000000000000 0.0000000000000000 3.3261657739921118 3.6755790581487142 1.3498827162168925 1.1620043804749174 1095.3488075462412 1095.3478979443028 1.1618443874494477 
-31.983010521130705 -128.51471301375727 136.05486020882651 -31.983010521130709 -128.51471301375739 136.05486020882651 29.023698013258254 6.0752821924287849e-06 -3.0769792797415751e-06 1.4031976342544642e-05 0.0000000000000000 -4.0187636551891609e-10 -8.5599305421624194e-11 -3.1408285714462636e-06 -0.0018044694379553805 -2.6020280284461791e-11 -5.7033687121474888e-12 -1.1160967058784024e-10 0.0000000000000000 -30.948229910445860 -127.64113600963313 142.72864290474456 229.21992526850030 0.0000000000000000 0.0000000000000000 0.0000000000000000 0.0000000000000000 3.3218178367036906 3.6658112109215333 1.3444217037059409 1.1604674439647853 1102.0301764803196 1102.0298736473567 1.1594924373542768 
-49.868738732611348 -131.85088942912276 140.61416556947646 -49.868738732611320 -131.85088942912273 140.61416556947646 44.338842305092875 1.5041088476503343e-05 1.9265298325192335e-05 -1.0704283820745405e-05 0.0000000000000000 -5.1125761374745613e-07 1.7869107838230688e-07 -4.3101146065816612e-06 -0.0017924290480927586 5.4227183450730994e-12 1.5645928702151694e-10 -1.9113032445361791e-10 0.0000000000000000 -48.406431667502837 -130.90513559487593 146.85896726379221 225.63426853136377 0.0000000000000000 0.0000000000000000 0.0000000000000000 0.0000000000000000 3.3289635691696922 3.6811450076420016 1.3526434021293430 1.1630933609821912 1091.8648679020550 1091.8783570007688 1.1630315332881407 
-54.571158120987342 -84.920104382347859 63.652199361746625 -54.571158120987327 -84.920104382347802 63.652199361746625 25.248533157400061 2.8550837417296632e-06 0.00011045557766192789 -4.2986634494889732e-05 0.0000000000000000 5.6473933329026972e-08 -1.2304784874975384e-06 -7.8982800699969517e-06 -0.0036042581068630821 -2.8951792389370979e-10 -4.2700125326133429e-09 -4.9125923338513926e-10 0.0000000000000000 -53.009977022357148 -84.940192361847963 77.707205907375524 356.07450292316213 0.0000000000000000 0.0000000000000000 0.0000000000000000 0.0000000000000000 3.3348283558584817 3.6942942448804632 1.3599684792288540 1.1642666934191532 1104.7288324028841 1104.7235819112875 1.1661481130652218 
-41.550410407031677 -85.702322765521572 52.317584368266239 -41.550410407031677 -85.702322765521600 52.317584368266203 -74.191363201183094 2.5828665110628872e-05 2.4126528444272454e-05 -8.5813800210371652e-05 0.0000000000000000 2.9281163887985758e-08 -1.5848833878901052e-07 -7.1498554578585099e-06 -0.0032634799701665934 -3.4201894096788363e-10 -3.2501663848533464e-10 7.3054525433983034e-10 0.0000000000000000 -40.313282635619565 -85.652866469445740 67.489144002613742 334.72004880612383 0.0000000000000000 0.0000000000000000 0.0000000000000000 0.0000000000000000 3.3182269284730337 3.6586327833471737 1.3408417887221113 1.1593448310528396 1270.5204190116096 1270.5205756245462 1.1579311387892159 
-44.194629342917615 -94.299164802455351 69.885065181285142 -44.194629342917629 -94.299164802455365 69.885065181285185 37.302933120965491 8.9843612885161079e-05 1.4527583563146177e-06 -2.1076855121534440e-05 0.0000000000000000 -2.6747535478498576e-07 -8.3037688340890380e-08 -8.1468600036732029e-06 -0.0032913087325411555 -1.8901978535019019e-09 -9.4418919237001629e-11 -2.7199400224601965e-09 0.0000000000000000 -42.930125987095458 -94.071309017270835 83.274511392489799 283.94561953274422 0.0000000000000000 0.0000000000000000 0.0000000000000000 0.0000000000000000 3.3383213123057520 3.7023238999988033 1.3645539260929231 1.1642874049669785 1093.9510609454564 1093.9515812206771 1.1681440025494927 
-46.330468269753723 -99.303226419910942 52.979960771746576 -46.330468269753730 -99.303226419910956 52.979960771746605 1.4497780444527266 0.00016938322600019149 1.6199768505018912e-05 -0.00014772666635820816 0.0000000000000000 -5.3755561113533190e-10 -3.2675417926952832e-11 -7.0760827810545388e-06 -0.0033627077936123229 4.5517765039374841e-10 2.6202898717396659e-11 2.0663185912479832e-09 0.0000000000000000 -44.946335306532468 -98.969717126470769 68.015559797458934 339.42980011114588 0.0000000000000000 0.0000000000000000 0.0000000000000000 0.0000000000000000 3.3328313736147899 3.6910795758736819 1.3588071646854845 1.1634311956658563 1117.2003065365889 1117.2060503539540 1.1656679378951289 
-36.752384737200444 -101.20126977317982 61.097230720161619 -36.752384737200458 -101.20126977317979 61.097230720161626 -27.513377741541522 7.7688451052878172e-05 1.6468520863004114e-05 -4.7412128492597597e-05 0.0000000000000000 -2.1740320095271065e-07 1.5729320670505073e-07 -7.2125433345735707e-06 -0.0032579929747365006 -1.0362469788324517e-09 5.7159135552766381e-10 -4.3803559649141749e-10 0.0000000000000000 -35.672109309640206 -100.83293553867907 75.360366609178811 338.44965823895870 0.0000000000000000 0.0000000000000000 0.0000000000000000 0.0000000000000000 3.3152831371117295 3.6520569960065687 1.3371889848483038 1.1595942466919669 1184.9903972124919 1184.9896917080007 1.1563639549453588 
-50.460489670947076 -112.57088109511250 50.052926375541666 -50.460489670947069 -112.57088109511254 50.052926375541681 10.202976297107069 0.00015725921453045840 -2.7093751921230740e-05 -5.9238283085585217e-05 69.548253348222289 -5.7660948238336108e-10 -5.6714855034556415e-11 -7.2147362679686458e-06 -0.0030588519526615911 4.5582856721479908e-10 -5.8215180476431337e-10 3.2335581259013913e-10 -0.0030135398059557695 -48.975793059600008 -111.99207679200002 65.383142959360015 326.57209562220959 0.0000000000000000 0.0000000000000000 0.0000000000000000 0.0000000000000000 3.3233537930341650 3.6688981615029941 1.3459662590575703 1.1618406779960491 1108.7841041484517 1108.7893810735191 1.1601503583267545 
-26.131844948795763 -111.03222873619283 52.372960349102641 -26.131844948795781 -111.03222873619281 52.372960349102641 -99.195229346708814 2.6734035485104914e-05 -1.1725626874669238e-06 -5.9533526541609874e-05 0.0000000000000000 -3.4654629166297468e-10 -5.3929083421166972e-11 -7.1048363601278197e-06 -0.0030074239010159914 -8.8966356831239272e-11 1.8634233739465986e-10 -3.9850427795907005e-11 0.0000000000000000 -25.239536857883341 -110.48187134057846 67.469656361758609 349.35568362690350 0.0000000000000000 0.0000000000000000 0.0000000000000000 0.0000000000000000 3.3197417945787286 3.6618593009289233 1.3425622040564129 1.1594985909006277 1323.2348881738487 1323.2341935763525 1.1586902137995549 
-45.438260976019357 -111.83377816364995 62.361046264104502 -45.438260976019357 -111.83377816364998 62.361046264104509 16.499262734714836 6.7794935227977887e-05 -7.7799125990165273e-05 -2.9909616428769744e-05 0.0000000000000000 -5.2911991454962504e-10 -5.5383031494216077e-11 -6.6317011828687092e-06 -0.0030045893824895199 6.2339716333441280e-11 2.6307747929396627e-10 -1.1654994859267616e-09 0.0000000000000000 -44.075852747763513 -111.26860156453857 76.452402029906395 268.59635586333832 0.0000000000000000 0.0000000000000000 0.0000000000000000 0.0000000000000000 3.3315137295205086 3.6880132718416792 1.3570283872833635 1.1638629794594004 1141.7706050206837 1141.7693158644249 1.1649177332138752 
-59.952369535383063 -107.10830431875642 94.458906999635431 -59.952369535383028 -107.10830431875640 94.458906999635460 40.518839371144203 6.1153289944052109e-06 -1.5172818181595970e-05 4.0771167114978932e-06 0.0000000000000000 -3.8106576643071753e-07 -3.6590342399586144e-07 -6.9401700705257060e-06 -0.0023841631004327692 1.5737935208429587e-10 3.1563613092023537e-10 -3.4135056202555814e-10 0.0000000000000000 -58.254647241440821 -106.62760994408018 105.33920711112118 241.62621693813244 0.0000000000000000 0.0000000000000000 0.0000000000000000 0.0000000000000000 3.3282680797775908 3.6806625639445363 1.3529010426329651 1.1631348228007912 1095.7976532098835 1095.7994836345163 1.1631416733175823 
-66.288618735244171 -90.185287188980084 84.794913178291907 -66.288618735244185 -90.185287188980070 84.794913178291893 52.861760715957161 -3.5334554946828278e-06 -3.6870337774093347e-05 3.4757459238887355e-05 0.0000000000000000 -1.6602365582767755e-07 6.3261868328375085e-08 -7.1599707129478109e-06 -0.0025074644746666246 -4.0436009855387185e-10 1.1757975755009979e-11 7.0314855013835924e-10 0.0000000000000000 -64.370648572599308 -90.090304358695661 96.688480747766732 239.98138923263960 0.0000000000000000 0.0000000000000000 0.0000000000000000 0.0000000000000000 3.3365770356045577 3.6990546150028227 1.3630359741738625 1.1649300856543343 1085.9753767617997 1085.9707107792422 1.1674836574677807 
-78.106867359137894 -100.00838815106152 89.957586793111986 -78.106867359137894 -100.00838815106148 89.957586793111986 51.869926095358821 4.9309134089363755e-06 3.7789927995396845e-06 -8.7929143424735319e-06 0.0000000000000000 -3.3495914281141748e-07 -2.4356938321654232e-07 -6.7163520512493068e-06 -0.0025611786177367284 -3.0142052799442307e-10 3.4237901417909057e-10 -4.6492604156459580e-10 0.0000000000000000 -75.913673002404863 -99.702254402691466 101.32606574872912 288.13617662859207 0.0000000000000000 0.0000000000000000 0.0000000000000000 0.0000000000000000 3.3355452207787795 3.6971091328486634 1.3621403290232268 1.1653181787509210 1087.8298415546260 1087.8184781658847 1.1671135995561024 
-56.810521811054166 -93.795230334707114 92.203205911100298 -56.810521811054137 -93.795230334707114 92.203205911100270 46.239655353835055 4.0858665440785266e-06 1.0272364488619699e-05 2.3994663081225040e-05 0.0000000000000000 -1.9523012422408583e-07 -6.8331592987641153e-08 -7.1379277415495122e-06 -0.0024208984632989486 -1.0129212791808078e-10 -1.3726285264714503e-10 -7.1393717471976700e-11 0.0000000000000000 -55.164710769962618 -93.586508083202432 103.32606452766413 222.68531933077850 0.0000000000000000 0.0000000000000000 0.0000000000000000 0.0000000000000000 3.3329100802082952 3.6908227344825377 1.3584438726173045 1.1648883742398655 1105.1678279674782 1105.1692591738283 1.1655229615426876 
-47.167286836754933 -177.67832888953916 150.42142365945315 -47.167286836754940 -177.67832888953916 150.42142365945310 52.196513221138638 -1.1022759393937350e-05 9.2528863604044833e-06 6.3227181988451523e-06 0.0000000000000000 -5.4546483996276152e-10 -1.7466628143836258e-10 -2.4602850992039293e-06 -0.0017093706596799749 7.7746607188022353e-12 1.9758974075862534e-11 2.7029781776936818e-11 0.0000000000000000 -45.762777822239421 -175.89580528354742 155.64915507299250 248.91339099022119 0.0000000000000000 0.0000000000000000 0.0000000000000000 0.0000000000000000 3.3297995039927168 3.6828431827967454 1.3535057024119275 1.1630319970064555 1079.4541213063205 1079.2512560224384 1.1634002827782834 
-52.981579143046133 -187.52742708699904 164.32548069359382 -52.981579143046133 -187.52742708699904 164.32548069359382 56.632693646066237 7.3852912422776079e-06 -6.7876084316380528e-06 -8.1176486587668927e-06 50.926274377368564 -6.0045129979258149e-10 -1.9250312455199039e-10 -1.8016505443085860e-06 -0.0016118342689880464 1.7210228389405009e-11 -5.1420363599424113e-11 -5.9498398046567872e-11 -0.0016155765315222471 -51.435495451599998 -185.56281141599996 168.15371392000000 294.81703600272857 0.0000000000000000 0.0000000000000000 0.0000000000000000 0.0000000000000000 3.3246261104892318 3.6722947474637500 1.3481327250017936 1.1614356046489553 1057.3416549841061 1060.0254606631258 1.1610918990445145 
-43.998789432494561 -172.86789485691540 162.22047640645448 -43.998789432494533 -172.86789485691537 162.22047640645448 56.939923720302289 7.4046272584684200e-06 -6.1191684001223018e-06 -1.0003820818892824e-05 0.0000000000000000 -1.5365003882648869e-08 2.3384153194331172e-07 -2.0680770617476411e-06 -0.0016449111553637696 4.7082427227098553e-11 8.6623373886792556e-11 -6.2568968612227606e-11 0.0000000000000000 -42.672974891599750 -171.18173466392949 166.26923354793541 271.88244999766295 0.0000000000000000 0.0000000000000000 0.0000000000000000 0.0000000000000000 3.3267993196953922 3.6767973625981414 1.3504649078802944 1.1621027765655165 1059.4798624164212 1058.0596345191586 1.1620951401784330 
-61.127158796898399 -179.83987000034827 152.75807813944832 -61.127158796898371 -179.83987000034824 152.75807813944823 54.411139783597250 1.1181307205611491e-05 -1.3299993670648468e-06 -2.3782979664276629e-06 0.0000000000000000 -6.7748234799935848e-10 -1.7857249012820375e-10 -2.3495978886955982e-06 -0.0017032357542893619 -2.0259573644869962e-11 3.4736912403191000e-11 -8.5824516849970333e-11 0.0000000000000000 -59.382734921100123 -178.01738339707751 157.75061606229067 243.94852352315442 0.0000000000000000 0.0000000000000000 0.0000000000000000 0.0000000000000000 3.3266159273803924 3.6762072200733944 1.3500473201235730 1.1620382059594976 1060.0455928761951 1059.9280451131517 1.1619150256785711 
-31.655178585409807 -103.14389294785364 83.311148195494866 -31.655178585409800 -103.14389294785362 83.311148195494809 26.873172932049116 5.8518372417520343e-06 3.3591136887464164e-05 -3.8359201297187838e-05 0.0000000000000000 2.6943088756694053e-07 -3.4419470631319989e-07 -6.6309232585345589e-06 -0.0028768550689432324 6.1766981455173304e-10 -1.8398833232821734e-09 6.4908381788506849e-12 0.0000000000000000 -30.660097366607719 -102.72526557899965 95.328291536857705 204.58703120518373 0.0000000000000000 0.0000000000000000 0.0000000000000000 0.0000000000000000 3.3289458979146063 3.6800825655842249 1.3515630325057020 1.1617820309126221 1104.4592141094811 1104.4593330562927 1.1625651511754038 
-19.535922724240855 -111.46429668414710 81.154295556953315 -19.535922724240852 -111.46429668414706 81.154295556953301 -19.853838714442819 4.7239165328545904e-05 -5.7972882965117556e-06 -5.7993088368866863e-05 0.0000000000000000 -2.8417063147045951e-10 -5.4712012698132646e-11 -5.7414658165555466e-06 -0.0028768474945559553 -1.1021273876337563e-09 -4.1771354115321121e-11 4.4126351620435401e-10 0.0000000000000000 -18.804221549666405 -110.90595113131390 93.354036648627854 267.24800799435923 0.0000000000000000 0.0000000000000000 0.0000000000000000 0.0000000000000000 3.3206563896570644 3.6624179625322890 1.3421564758596789 1.1597887563498861 1182.5777881147521 1182.5777908891316 1.1585148231927815 
-34.846318457975933 -105.18718441904652 71.802421933350004 -34.846318457975933 -105.18718441904652 71.802421933349976 0.076819388384033918 6.4630434886658555e-05 -3.0282088649036776e-05 -3.7326655040306266e-05 0.0000000000000000 3.4159736907929052e-07 -7.8084468732672332e-08 -6.9718257574068351e-06 -0.0028109496230525120 5.5847705298639447e-10 -3.2326278954414028e-11 1.3905550496316802e-10 0.0000000000000000 -33.815892125380543 -104.71065599625929 85.007910193808286 270.69679205096202 0.0000000000000000 0.0000000000000000 0.0000000000000000 0.0000000000000000 3.3208192297773809 3.6640092594526084 1.3436343255658081 1.1603787245865789 1137.2754564310123 1137.2753834332041 1.1591395441148464 
-19.655803935465890 -100.73974915183257 83.427088481936465 -19.655803935465887 -100.73974915183254 83.427088481936451 3.8643365731471095 2.8813226931393317e-05 -2.0459160762981081e-05 -1.8697640097221101e-06 0.0000000000000000 -2.8530389162284564e-10 -3.5278224785884049e-11 -5.6338037133230037e-06 -0.0026345356657512934 -4.1134931718374496e-10 -4.0081752376711698e-10 -1.3976541625989590e-10 0.0000000000000000 -18.921183722278450 -100.37968114352928 95.398064000337470 185.31956687594098 0.0000000000000000 0.0000000000000000 0.0000000000000000 0.0000000000000000 3.3255900200227582 3.6735361555599635 1.3483806610182851 1.1608604194925423 1157.9813265061598 1157.9813213625969 1.1612004688634949 
-32.152582916622443 -118.65619643306232 169.95457061666443 -32.152582916622457 -118.65619643306231 169.95457061666445 43.120047151032473 2.9315779209145154e-05 4.6609843332035479e-05 -2.5061105861726045e-05 0.0000000000000000 -1.6197522476852010e-07 1.9035514615829597e-08 -1.5637513548424256e-06 -0.0019363045184162149 -1.1016394937984155e-10 -1.0372143195932133e-10 8.3107897942036572e-11 0.0000000000000000 -31.124431206993112 -117.97934695114738 173.21200361760444 258.17126679857051 0.0000000000000000 0.0000000000000000 0.0000000000000000 0.0000000000000000 3.3275031347834849 3.6778885349675465 1.3508376665852142 1.1626097949786345 1083.7102581777935 1083.8672235497613 1.1622529534632866 
-31.669255207605552 -134.10476425855435 160.59919455919012 -31.669255207605573 -134.10476425855441 160.59919455919015 45.513917501548597 -1.7500868991632074e-06 1.1210950723780780e-05 -9.0799690731943782e-06 0.0000000000000000 -2.3903299197080891e-07 1.2359368162882701e-07 -2.0427553430766908e-06 -0.0017528772085993261 -1.0283657558531275e-10 1.2679787087361971e-10 2.2685943759546987e-12 0.0000000000000000 -30.642131568542830 -133.13454878399213 164.80820313575899 262.24283076768535 0.0000000000000000 0.0000000000000000 0.0000000000000000 0.0000000000000000 3.3277671829064563 3.6786761438910212 1.3513702890706536 1.1623436209209557 1085.9521777371656 1086.0918608037171 1.1624844934655199 
-43.991266294518368 -120.82493509016166 159.37676304655167 -43.991266294518375 -120.82493509016163 159.37676304655176 51.223915486323889 2.2392013118832469e-05 -1.2463899517497862e-05 -1.9201555810274695e-05 0.0000000000000000 -3.4427941861139179e-07 8.0174943088954308e-08 -2.2905821538323828e-06 -0.0019282697498802701 -1.0946565754007956e-10 -7.5967607401737873e-11 7.7384759121486061e-10 0.0000000000000000 -42.676694985445003 -120.10595080876966 163.70375490782192 268.28772502602959 0.0000000000000000 0.0000000000000000 0.0000000000000000 0.0000000000000000 3.3294942363432503 3.6827981378592791 1.3537936347477311 1.1642331678076108 1086.4836883573441 1086.3479090588405 1.1635244585419562 
-24.602390071808234 -114.85500101924733 157.27486611673723 -24.602390071808248 -114.85500101924742 157.27486611673712 22.698658813127402 1.1198952295274890e-05 1.1412344298252967e-05 2.9504744380821412e-06 0.0000000000000000 -3.3207975258520150e-10 -6.0854210559568855e-11 -2.1356378354653316e-06 -0.0017953295102886250 -2.7565611200290734e-12 5.5424973149599998e-11 3.9506617142302556e-11 0.0000000000000000 -23.747323328369049 -114.23396745764113 161.81277151251504 321.01516800445251 0.0000000000000000 0.0000000000000000 0.0000000000000000 0.0000000000000000 3.3226894826712470 3.6675537706941559 1.3452939124725980 1.1605305787587235 1115.7157082652386 1115.6581576273745 1.1598690412240871 
-6.8871590349616163 -105.43441670965589 98.919940635993356 -6.8871590349616136 -105.43441670965586 98.919940635993342 34.050281901176056 2.1694565818517315e-06 -3.1957366463616995e-06 -2.6519455294345392e-05 52.553969056013472 -1.6455603546461361e-10 -4.3788306314240799e-11 -4.8999080135558870e-06 -0.0019568218459916774 2.8677083922236949e-11 -9.9798693450967734e-12 -5.4651444379514450e-10 -0.0018282246787121243 -6.4634479885999987 -104.98755276399999 109.33149947120000 327.67017865987640 0.0000000000000000 0.0000000000000000 0.0000000000000000 0.0000000000000000 3.3251142333874224 3.6731648148346063 1.3485070064752409 1.1611198991785925 1076.5761316012029 1076.5761380300135 1.1612523892621991 
-12.363905100268784 -97.415488971739180 90.142656197098205 -12.363905100268783 -97.415488971739165 90.142656197098191 10.806722635553509 8.3594810461425974e-06 -1.7876994239252505e-05 -4.4296339313400284e-05 11.625317608188013 -2.1634682934035249e-10 -2.9265478929119126e-11 -5.3156875878812579e-06 -0.0023566002704959853 -6.5233670644756077e-11 5.1652160009772070e-11 -3.4369583209279285e-10 -0.0023370027028822280 -11.806838433999999 -97.116880539599975 101.43768333439998 212.90238721710071 0.0000000000000000 0.0000000000000000 0.0000000000000000 0.0000000000000000 3.3254413618714258 3.6738948039144477 1.3489122840420762 1.1611366534782530 1141.3639041463014 1141.3639140053622 1.1614269826039914 
-16.507567094404624 -110.90816650025056 91.988156418448298 -16.507567094404632 -110.90816650025050 91.988156418448341 10.738061961315223 3.6077459177479176e-06 -8.9565803050061003e-06 -8.8216826229741048e-05 0.0000000000000000 -2.5553376081788315e-10 -5.3701265656513890e-11 -5.2282663176583810e-06 -0.0022648537266625360 1.8768705577416329e-10 -1.1595553829635621e-10 -7.3161873414928150e-10 0.0000000000000000 -15.849604639409371 -110.36010279166017 103.09742667861765 236.22178992679409 0.0000000000000000 0.0000000000000000 0.0000000000000000 0.0000000000000000 3.3222476544921036 3.6669585656978403 1.3451554562894463 1.1604471729185097 1130.3978668578968 1130.3978670014176 1.1598076748311532 
-24.604701684264775 -99.878354840887013 91.081297777604121 -24.604701684264782 -99.878354840886971 91.081297777604107 27.137418932884454 1.9022394710993164e-05 1.4646404038791400e-05 -4.4403883722896139e-05 0.0000000000000000 -3.3210362238023095e-10 -3.3713920544187204e-11 -5.2712241682684180e-06 -0.0023171070271965468 -1.2924129659642132e-10 2.6086618405933953e-10 -6.6929327326832012e-10 0.0000000000000000 -23.749578654390465 -99.534212460059550 102.28184693721489 211.57004919854941 0.0000000000000000 0.0000000000000000 0.0000000000000000 0.0000000000000000 3.3236946145691260 3.6699736144775179 1.3467265444762939 1.1610270732128218 1102.1173458165651 1102.1173292389283 1.1604857071584929 
-55.683770541124389 -108.90741895499617 103.90769062600978 -55.683770541124410 -108.90741895499619 103.90769062600977 25.686529999767355 -2.5450610768310289e-06 -4.0326481964612778e-05 2.2623550895808667e-05 0.0000000000000000 -5.7809115344266377e-07 -3.9890489862362662e-07 -6.4752212856748154e-06 -0.0023981217996484963 4.2302521763521728e-10 -3.3779456677079444e-10 1.0776449615737128e-09 0.0000000000000000 -54.087034329299712 -108.37170302860723 113.84396407125838 191.01171882188567 0.0000000000000000 0.0000000000000000 0.0000000000000000 0.0000000000000000 3.3207020277323323 3.6638596955834530 1.3436060472110762 1.1601431430595208 1106.5580671190244 1106.5580397305810 1.1591396890107744 
-42.984794122015444 -108.27076545690150 100.71668224832899 -42.984794122015479 -108.27076545690156 100.71668224832906 32.533720112052087 2.5728999526299966e-06 -2.7358842516039137e-05 8.7994151202910759e-06 0.0000000000000000 -5.6513497791314464e-07 -8.5601618179477105e-09 -6.4628501559941542e-06 -0.0019938399450470145 -4.3124169378409372e-10 6.2679256221943538e-10 4.1948893700653216e-10 0.0000000000000000 -41.690910404717421 -107.74885629568415 110.97670241767709 270.34727434602189 0.0000000000000000 0.0000000000000000 0.0000000000000000 0.0000000000000000 3.3256336825879300 3.6743173016740056 1.3491498760926910 1.1615057750254409 1102.5782015430525 1102.5781355040008 1.1615285500379526 