# For a description of the Tecplot format see the Tecplot User's guide.
#
Variables=x,y,z,s_u,s_v,s_w,s_p,mono_f_vel_u,mono_f_vel_v,mono_f_vel_w,const,u_nu,v_nu,w_nu,p_nu,x_nu,y_nu,z_nu,const,u_ref,v_ref,w_ref,vol_ref,x_ref,y_ref,z_ref,const,I1,I2,I3,J,p1,p2,p3
Zone f=fepoint, n=1339, e=6475, et=brick, c=black
-58.8642 -70.4501 176.047 -58.864217000402093 -70.450141489294069 176.04665025457550 -65.736239713796451 -1.4790506499156249e-09 -1.7798391413687575e-07 6.1898033507555941e-07 -66.170677136376028 1.9018094009337627e-09 -9.8558772254619953e-11 2.0979824721933937e-07 0.00012697905579486107 1.9987035372167984e-13 -3.0400060568760262e-13 5.4503269382745420e-15 0.00012732792806979009 -58.668039002000000 -70.473359259200009 176.35421013599998 215.13583165143561 0.0000000000000000 0.0000000000000000 0.0000000000000000 0.0000000000000000 3.0342624221042667 3.0687988749254163 1.0345370897721529 1.0168794568376271 246.39869604774049 246.39870195018113 1.0171222520016043 
-65.177152017038878 -76.404253099712150 183.80766639319830 -65.177152017038892 -76.404253099712150 183.80766639319833 -68.426995108755690 -1.5451320729963241e-06 -2.5830282110857240e-06 2.7636089108410588e-06 -68.422430864341678 2.0748653871416338e-09 -4.4288156475502654e-11 1.4791697378058188e-07 0.00012728983477467942 2.0936228954637813e-12 -4.0507983874656813e-13 -1.0373249824442960e-12 0.00012860803686134964 -64.963123215600007 -76.414687385200040 184.02450960799996 253.42820447565578 0.0000000000000000 0.0000000000000000 0.0000000000000000 0.0000000000000000 3.0348880360344288 3.0700640710891185 1.0351767328067643 1.0168794568376271 253.40949448773068 253.40953026509808 1.0174370051280275 
-69.890950406400222 -71.563318459518683 176.93954929044716 -69.890950406400208 -71.563318459518669 176.93954929044710 -66.469306804305560 -1.2821041748185861e-06 -4.4612538812227607e-07 2.3498671738383541e-07 -67.647607446942516 2.2040792489741445e-09 -8.8409113363496785e-11 2.0267886569058646e-07 0.00012743164852113429 1.1348131701608861e-12 1.2827582825992200e-13 1.8077714620181903e-13 0.00012797910512134659 -69.663592608799988 -71.584146237200002 177.23667228800005 218.29881668600640 0.0000000000000000 0.0000000000000000 0.0000000000000000 0.0000000000000000 3.0352288117141506 3.0707492860778172 1.0355211841586964 1.0168794568376276 251.28388551968786 251.28389221340424 1.0176065518169595 
-57.356921167818506 -87.740679358278740 171.30788860353513 -57.356921167818477 -87.740679358278726 171.30788860353522 -62.490559893829015 -1.7862544192019817e-06 2.5974222946398153e-06 6.6970125762007014e-06 0.0000000000000000 1.8604961703194700e-09 5.9031612931192980e-11 2.4758204686392560e-07 0.00012630887602235193 1.6225183844585390e-12 -1.8581526354368686e-12 4.0585247523564437e-14 0.0000000000000000 -57.165005282198301 -87.726774323660578 171.67083873969227 259.76550921814646 0.0000000000000000 0.0000000000000000 0.0000000000000000 0.0000000000000000 3.0312939511996708 3.0627954505637440 1.0315018286315929 1.0159208273205547 229.72796489607029 229.72792909269259 1.0156282904365883 
-89.180246005058436 -83.382470333244783 116.10471335231347 -89.180246005058450 -83.382470333244783 116.10471335231342 -57.126061109545454 -4.9134878395759806e-07 4.4655076812886570e-06 -2.1086521277820934e-06 0.0000000000000000 2.7328377304181029e-09 1.9304141618547987e-11 6.8773614403383466e-07 0.00013957670463917156 -2.9910858567288412e-12 -3.7200359330517099e-12 2.9896044246199830e-12 0.0000000000000000 -88.898344731952406 -83.377922378373768 117.11292023788836 283.91631954144174 0.0000000000000000 0.0000000000000000 0.0000000000000000 0.0000000000000000 3.0314511451749855 3.0630816238675838 1.0316307027082845 1.0159791377106471 220.29789012448043 220.29785030235720 1.0156919674161957 
-97.902256899889892 -66.870798008358321 107.10676970192759 -97.902256899889878 -66.870798008358307 107.10676970192755 -64.609951229621544 -3.8524037196039742e-10 1.4968157580900457e-06 -8.9984469834331862e-06 -65.934895848581164 2.9719334181110835e-09 -1.3117443242727234e-10 7.5947986477586927e-07 0.00014694675907541229 -9.2516016579975025e-13 -1.6109713262918902e-12 1.0005182473372612e-11 0.00014648340990189242 -97.595692787999965 -66.901700632800015 108.22015140479995 322.25788568967050 0.0000000000000000 0.0000000000000000 0.0000000000000000 0.0000000000000000 3.0347897866122291 3.0698746110073283 1.0350855486491288 1.0168794568376283 246.19701634756760 246.19700791102531 1.0173921404482262 
-79.918244370119609 -67.501902527814480 107.50676859845719 -79.918244370119567 -67.501902527814522 107.50676859845721 -63.288789210694830 -2.3611832142755871e-06 2.1310413209757794e-06 -4.1243725406246129e-06 0.0000000000000000 2.4789435747185622e-09 -1.2541942484567414e-10 7.5629053686299130e-07 0.00014597003054607041 3.1091831340541547e-12 -2.2700241040026255e-13 8.8176280059646224e-12 0.0000000000000000 -79.662532843379708 -67.531450170133141 108.61547480962874 295.38956150422752 0.0000000000000000 0.0000000000000000 0.0000000000000000 0.0000000000000000 3.0324574518150360 3.0651464145761191 1.0326894232471735 1.0162646362120842 235.40058398314758 235.40036671900972 1.0162128207628920 
-94.775510633796458 -81.840741409819486 107.51773013205610 -94.775510633796472 -81.840741409819444 107.51773013205609 -62.398109007851012 -3.3666417374031485e-06 2.8277208174600690e-06 -6.7231440974699977e-06 0.0000000000000000 2.8862185384725958e-09 5.2584048226833594e-12 7.5620314454738491e-07 0.00014803145560125219 5.5906051084618878e-12 1.6595541159776804e-12 1.4119963251436172e-11 0.0000000000000000 -94.477787882002133 -81.839503548705352 108.62630821647583 293.80807890400462 0.0000000000000000 0.0000000000000000 0.0000000000000000 0.0000000000000000 3.0324119660649087 3.0650419481411144 1.0326303863212620 1.0162358203112682 232.28003989634726 232.28002609422336 1.0161837244605822 
-47.481436370028391 -126.05127610126101 137.94404945772854 -47.481436370028398 -126.05127610126101 137.94404945772848 -33.576787954527013 7.5459355107399111e-08 1.9911110690261031e-06 6.3253443700564302e-06 0.0000000000000000 5.8439583155251890e-08 -2.2926050676096169e-08 5.6246234562360302e-07 0.00012163743482541598 -2.1399408362379496e-13 -1.4294283728463829e-12 3.8584394566481168e-12 0.0000000000000000 -47.292355390977058 -125.96433165720771 138.67232254046354 244.31333887135355 0.0000000000000000 0.0000000000000000 0.0000000000000000 0.0000000000000000 3.0372329570380048 3.0748413553139646 1.0376095296963013 1.0187443641831710 201.73289149115431 201.73220366781999 1.0186311653290323 
-34.333504972452737 -140.56362784658927 138.47421335225124 -34.333504972452722 -140.56362784658918 138.47421335225133 -33.616288933945576 3.3478287301183777e-06 -6.7587634430519096e-07 3.1737337268124710e-06 0.0000000000000000 2.3001304238145639e-08 1.2436364888557083e-09 5.2853189177384566e-07 0.00011620164983962533 -6.3707442498826361e-12 4.4175985140618780e-13 7.8386306074500297e-12 0.0000000000000000 -34.196989160350306 -140.43319657724166 139.21506628885933 210.16870282748488 0.0000000000000000 0.0000000000000000 0.0000000000000000 0.0000000000000000 3.0365700724744609 3.0734895223625363 1.0369203993317440 1.0183153211959686 199.65145058474388 199.65009769826122 1.0182930404665145 
-31.065803582754686 -127.74092160998514 142.02339328726012 -31.065803582754697 -127.74092160998509 142.02339328726009 -36.880053755199320 2.3578760126628314e-06 1.0933243229253936e-06 6.2012126098461829e-06 0.0000000000000000 1.1397963788073451e-09 4.2358061502767441e-10 4.8107749162085156e-07 0.00011702165469517697 -1.3280451604233534e-12 -1.5942756310349289e-12 8.0889022998293820e-12 0.0000000000000000 -30.948229910445860 -127.64113600963313 142.72864290474456 229.21992526850030 0.0000000000000000 0.0000000000000000 0.0000000000000000 0.0000000000000000 3.0354896331238179 3.0712954054702375 1.0358065776678163 1.0178766191351469 201.38655521455078 201.38709913116986 1.0177456901437880 
-48.596988645240671 -131.00367469307744 146.22251308506773 -48.596988645240657 -131.00367469307741 146.22251308506782 -34.782115003379133 2.1534018702601829e-06 6.2931074077923115e-06 -1.4321256418071478e-06 0.0000000000000000 5.4581782254629170e-08 -2.4636744652251929e-08 4.9127600988744538e-07 0.00011459760637064430 -1.3962307451474035e-12 -1.1669873323992666e-11 1.0511641962178846e-11 0.0000000000000000 -48.406431667502837 -130.90513559487593 146.85896726379221 225.63426853136377 0.0000000000000000 0.0000000000000000 0.0000000000000000 0.0000000000000000 3.0375473259331609 3.0754692217966335 1.0379229867778432 1.0186769201063490 203.36899760048283 203.36918847276075 1.0187850318744009 
-53.190873520248054 -84.925726808844516 76.192853793128748 -53.190873520248040 -84.925726808844516 76.192853793128748 -61.428623627360203 -1.7883519921268352e-06 1.6541947546662610e-05 -3.2478805977597687e-05 0.0000000000000000 2.8235110649675844e-09 1.4685390690533291e-08 1.1024037571310822e-06 0.00019372387321084028 9.8692688563958834e-12 1.2835216184642138e-10 3.4852249240477315e-11 0.0000000000000000 -53.009977022357148 -84.940192361847963 77.707205907375524 356.07450292316213 0.0000000000000000 0.0000000000000000 0.0000000000000000 0.0000000000000000 3.0332006507175127 3.0666411200634611 1.0334408833570909 1.0166134427525717 225.53213659707947 225.53300682172605 1.0165814968992146 
-40.455981259043604 -85.655539689525241 65.876109684269437 -40.455981259043611 -85.655539689525227 65.876109684269466 -81.550602064873175 -1.9736833932698482e-07 4.9592131644616700e-06 -1.7164337009544414e-05 0.0000000000000000 3.3382554839595086e-09 -2.6245758253285197e-09 1.1177538573944710e-06 0.00018942977507942327 1.4249999951841525e-11 1.1060095882264557e-11 -2.6211669496936899e-11 0.0000000000000000 -40.313282635619565 -85.652866469445740 67.489144002613742 334.72004880612383 0.0000000000000000 0.0000000000000000 0.0000000000000000 0.0000000000000000 3.0318045931920716 3.0638525994646337 1.0320485299779316 1.0162455036986642 265.16232826448044 265.16914776080034 1.0158974769321825 
-43.075008319263809 -94.079261331518907 81.835551156073578 -43.075008319263809 -94.079261331518879 81.835551156073564 -53.266838501845669 1.7081284952315969e-05 4.4933006988474967e-06 -1.4422790303960939e-05 0.0000000000000000 4.9448994502525399e-09 -1.0448680557112036e-08 1.0618769648436177e-06 0.00018117135704164605 5.7015541923966733e-11 1.8554890492166692e-11 1.1141139027770977e-10 0.0000000000000000 -42.930125987095458 -94.071309017270835 83.274511392489799 283.94561953274422 0.0000000000000000 0.0000000000000000 0.0000000000000000 0.0000000000000000 3.0339612782404952 3.0681880318861356 1.0342273095910244 1.0167441792999159 217.92106049004698 217.92178341324231 1.0169692288650045 
-45.103603034366998 -99.007812709243439 66.426678207409495 -45.103603034367012 -99.007812709243396 66.426678207409452 -69.913855283534716 1.1376472532012785e-05 8.6969084911177631e-06 -2.5660942201923512e-05 0.0000000000000000 1.5246003591540269e-09 1.6170703664997180e-10 1.0838363628806746e-06 0.00018892835253333821 -3.2175683299151964e-11 -1.7357795803076701e-11 -8.3649206826526749e-11 0.0000000000000000 -44.946335306532468 -98.969717126470769 68.015559797458934 339.42980011114588 0.0000000000000000 0.0000000000000000 0.0000000000000000 0.0000000000000000 3.0335072444634696 3.0673007912425772 1.0337942774493099 1.0166403698827207 246.67647738775671 246.64715696195643 1.0167561427573268 
-35.793753783559929 -100.86751669832309 73.842689554508794 -35.793753783559936 -100.86751669832304 73.842689554508766 -65.396870430176193 9.1407212356665714e-06 6.0565257537561921e-06 -1.3225768522103169e-05 0.0000000000000000 2.0125096518908993e-09 -1.2342012471623385e-08 1.0671445800353878e-06 0.00018556721160400765 3.5986781461387845e-11 -2.5699540999347334e-11 2.0378968934749264e-11 0.0000000000000000 -35.672109309640206 -100.83293553867907 75.360366609178811 338.44965823895870 0.0000000000000000 0.0000000000000000 0.0000000000000000 0.0000000000000000 3.0311006414652715 3.0624322937908968 1.0313321468463128 1.0161506062611432 234.04945942709156 234.00438018548201 1.0155450624668090 
-49.144487013717523 -112.05819155303391 63.763127763434348 -49.144487013717523 -112.05819155303389 63.763127763434348 -63.126725109250131 1.7180452674904602e-05 7.4644412620775577e-06 -1.5850481739150723e-05 -56.029862661505568 1.6353699471005621e-09 2.8064831014695812e-10 1.1050737822593251e-06 0.00017374432216377169 -3.2286102155052296e-11 2.9494164767586107e-11 -1.8912190601705212e-12 0.00016843796601483848 -48.975793059600008 -111.99207679200002 65.383142959360015 326.57209562220959 0.0000000000000000 0.0000000000000000 0.0000000000000000 0.0000000000000000 3.0338019556240758 3.0678597736718607 1.0340583503950269 1.0168060281859799 236.71986665917845 236.89374227742067 1.0168859482787855 
-25.340922540989684 -110.54473671234342 65.874318369300795 -25.340922540989698 -110.54473671234338 65.874318369300852 -75.909177011236778 3.2035003945752263e-06 3.8883324455882986e-06 -1.5093648965038859e-05 0.0000000000000000 9.8286485547549596e-10 2.6685686993488389e-10 1.0882405243606286e-06 0.00017856804021572584 8.1622228675952385e-13 -1.0961218606669834e-11 1.4101127883522227e-12 0.0000000000000000 -25.239536857883341 -110.48187134057846 67.469656361758609 349.35568362690350 0.0000000000000000 0.0000000000000000 0.0000000000000000 0.0000000000000000 3.0326947797848089 3.0656421297992575 1.0329479133382802 1.0164595997037469 259.03058158968628 259.14581441469170 1.0163401829637448 
-44.230652071335882 -111.33315968131701 74.963303011182234 -44.230652071335882 -111.33315968131697 74.963303011182234 -54.291907319568260 9.2496338510448601e-06 -7.6689258459579612e-06 -8.6151873513582954e-06 0.0000000000000000 1.5006722496602176e-09 2.7404079006032584e-10 1.0157708958402623e-06 0.00017130347960974453 -1.1395057482894870e-11 -1.2813421229758300e-11 4.3726071483386786e-11 0.0000000000000000 -44.075852747763513 -111.26860156453857 76.452402029906395 268.59635586333832 0.0000000000000000 0.0000000000000000 0.0000000000000000 0.0000000000000000 3.0348344377753596 3.0699772566249819 1.0351436200268578 1.0166703184833605 226.09167421163787 226.19428621507546 1.0174202098415046 
-58.478535735479639 -106.64272817491765 104.18270446395417 -58.478535735479667 -106.64272817491761 104.18270446395414 -28.948772203906845 3.2024053907606249e-06 1.3502973513319305e-05 -6.6409820350569388e-07 0.0000000000000000 5.6987606025144941e-08 -2.1592716447461743e-08 8.5420790588704710e-07 0.00014707043665952946 -1.1944048633399827e-11 -1.8979645965989617e-11 7.4270559959675161e-12 0.0000000000000000 -58.254647241440821 -106.62760994408018 105.33920711112118 241.62621693813244 0.0000000000000000 0.0000000000000000 0.0000000000000000 0.0000000000000000 3.0394611043059530 3.0793271860833316 1.0398673297415639 1.0195156372453422 199.21823622491019 199.21870672354206 1.0197387578119042 
-64.613305518322065 -90.066429459671667 95.410822812313498 -64.613305518322036 -90.066429459671724 95.410822812313469 -44.493508915900641 -6.3513945800690816e-06 4.1934228474072042e-06 9.6222530229934352e-06 0.0000000000000000 4.2990998593113861e-08 -4.7328507112390259e-08 9.3793746225061757e-07 0.00014923539004385505 1.4662622106476245e-11 -5.7947321690535568e-12 -3.2726958078135818e-11 0.0000000000000000 -64.370648572599308 -90.090304358695661 96.688480747766732 239.98138923263960 0.0000000000000000 0.0000000000000000 0.0000000000000000 0.0000000000000000 3.0359390421673775 3.0721765121429154 1.0362380432147342 1.0172840265912975 210.15489781246367 210.15514460811039 1.0179566342956552 
-76.197196243166005 -99.709970344778085 100.11017027789448 -76.197196243166033 -99.709970344778071 100.11017027789453 -40.933733178058851 -1.1042920074412104e-05 1.2840783281586567e-05 -2.8125583206377540e-06 0.0000000000000000 6.1073639830765371e-08 -2.1391658561845011e-08 8.8367261339628275e-07 0.00015301900547432120 2.5083911382107167e-11 -2.4143340565408941e-11 1.2895073620967397e-11 0.0000000000000000 -75.913673002404863 -99.702254402691466 101.32606574872912 288.13617662859207 0.0000000000000000 0.0000000000000000 0.0000000000000000 0.0000000000000000 3.0370076523565741 3.0743507316316721 1.0373439248926895 1.0179990800104428 209.10109221436622 209.10124235080815 1.0185013800831972 
-55.376412556779854 -93.571234008029180 102.13816129498083 -55.376412556779847 -93.571234008029180 102.13816129498083 -41.535489987231976 -5.8332388983060626e-07 6.7248295446046121e-06 3.5793713379328294e-06 0.0000000000000000 4.3610073693200552e-08 -3.9870141045365352e-08 8.8457164879959617e-07 0.00014703410951214050 7.1777182021779940e-12 -1.1241273738466682e-12 3.3562558432342035e-12 0.0000000000000000 -55.164710769962618 -93.586508083202432 103.32606452766413 222.68531933077850 0.0000000000000000 0.0000000000000000 0.0000000000000000 0.0000000000000000 3.0362259455536726 3.0727410684126255 1.0365157156815750 1.0179877094645982 213.18817909967049 213.18799975496492 1.0180943045559092 
-45.922360714421920 -176.09941662785445 155.09671641148722 -45.922360714421913 -176.09941662785431 155.09671641148722 -35.993754492620504 -5.6070780518056903e-06 -6.9245449482082451e-06 1.3243179235020567e-05 0.0000000000000000 1.5470445445531222e-09 8.6429075007998790e-10 3.7683936637833426e-07 0.00010674007389431387 3.4578807700474942e-12 7.4682799878846880e-12 -7.1046395355478530e-12 0.0000000000000000 -45.762777822239421 -175.89580528354742 155.64915507299250 248.91339099022119 0.0000000000000000 0.0000000000000000 0.0000000000000000 0.0000000000000000 3.0363305687241242 3.0729608331734251 1.0366309551159818 1.0177324109510566 196.50480762095782 196.43646114484969 1.0181505054874471 
-51.611164318433353 -185.78722249054300 167.74916673265813 -51.611164318433346 -185.78722249054297 167.74916673265810 -39.691043680270141 3.7430370490765944e-07 -6.4368095364744511e-07 -3.6309114025888414e-07 -41.220022629513188 1.7029920772182461e-09 9.5258440024892366e-10 2.7595697815741005e-07 0.00010485074315845321 -9.2326928554465909e-13 2.5821659289036989e-12 2.7889099620233348e-12 0.00010582419166461951 -51.435495451599998 -185.56281141599996 168.15371392000000 294.81703600272857 0.0000000000000000 0.0000000000000000 0.0000000000000000 0.0000000000000000 3.0334886314162115 3.0672357689577328 1.0337477145869876 1.0168886048973962 197.23980495308493 197.24016891427314 1.0167339713776216 
-42.825188851713385 -171.37384713295913 165.84420905421999 -42.825188851713385 -171.37384713295918 165.84420905421996 -38.845665322945635 8.3193252271100322e-07 -8.8061689563298038e-07 3.7185719155208365e-06 0.0000000000000000 3.8464736740128106e-09 -1.2867026823840562e-08 2.9568444376524348e-07 0.00010613262690280192 -2.3863399747782644e-12 -3.7328450854781955e-12 2.0598803901994798e-12 0.0000000000000000 -42.672974891599750 -171.18173466392949 166.26923354793541 271.88244999766295 0.0000000000000000 0.0000000000000000 0.0000000000000000 0.0000000000000000 3.0338280963122015 3.0679237710698382 1.0340962913160754 1.0170433072829725 196.04247218771167 195.91013402672701 1.0169052872452520 
-59.580939563729750 -178.22555957271200 157.22303138943116 -59.580939563729764 -178.22555957271200 157.22303138943110 -41.366899374038681 -3.7025416677079647e-06 -1.1915626599962244e-06 -2.8709543938959142e-07 0.0000000000000000 1.9214594880467835e-09 8.8367158035396187e-10 3.5988551427834636e-07 0.00010879295196279344 4.1471933103515814e-12 1.7557904484331532e-13 2.4345008203712425e-12 0.0000000000000000 -59.382734921100123 -178.01738339707751 157.75061606229067 243.94852352315442 0.0000000000000000 0.0000000000000000 0.0000000000000000 0.0000000000000000 3.0336538573597149 3.0675615952737116 1.0339082756360687 1.0170133634902696 200.12900134892848 199.39941141222664 1.0168129145167424 
-30.779672934388998 -102.75800308118426 94.043489626522430 -30.779672934389016 -102.75800308118420 94.043489626522401 -36.865068090545229 5.0004074739717466e-06 8.9610539956959178e-06 -2.2496073599455631e-05 0.0000000000000000 -5.4557133523926106e-09 8.5582284424991852e-10 9.2012035550369759e-07 0.00016563692267677836 -3.6214794649448979e-11 7.0523744653245606e-11 -4.1778777999478108e-12 0.0000000000000000 -30.660097366607719 -102.72526557899965 95.328291536857705 204.58703120518373 0.0000000000000000 0.0000000000000000 0.0000000000000000 0.0000000000000000 3.0362287515948978 3.0727442508444986 1.0365160402077616 1.0178633702167024 200.14650111208255 200.15715703560269 1.0180940867145549 
-18.887358780147050 -110.96972896192327 92.064833339150013 -18.887358780147046 -110.96972896192332 92.064833339150013 -47.826707915133703 8.3586211067860983e-06 1.0493398998230662e-06 -1.9232277228362911e-05 0.0000000000000000 8.0595743620626149e-10 2.7072505348613163e-10 8.7941444792960500e-07 0.00016720157635118516 4.1003819141648478e-11 -2.7950987020551775e-13 -1.9229895422018348e-11 0.0000000000000000 -18.804221549666405 -110.90595113131390 93.354036648627854 267.24800799435923 0.0000000000000000 0.0000000000000000 0.0000000000000000 0.0000000000000000 3.0336414713629787 3.0675296689214897 1.0338887045227165 1.0169570812024571 214.94887547789313 215.01571770673129 1.0168035012194701 
-33.934952774634723 -104.75389308878312 83.593556933959988 -33.934952774634702 -104.75389308878312 83.593556933959960 -51.156482222395404 8.0135207825836826e-06 -5.8844004127105534e-07 -1.6111523099965713e-05 0.0000000000000000 -1.6653123834269527e-08 -3.9802654715661100e-09 1.0068030624716588e-06 0.00016485096412808363 -2.5485550588242785e-11 1.5534601436718173e-12 -5.3504716283568512e-12 0.0000000000000000 -33.815892125380543 -104.71065599625929 85.007910193808286 270.69679205096202 0.0000000000000000 0.0000000000000000 0.0000000000000000 0.0000000000000000 3.0322190554500983 3.0646903356479487 1.0324718474884722 1.0165529435052512 213.11472076802991 213.11041895195203 1.0161055253410931 
-19.004652619284155 -100.42081043402852 94.133035411613335 -19.004652619284158 -100.42081043402851 94.133035411613321 -43.202129608652953 2.8430225901610291e-06 -2.7978350868322324e-07 -5.5581454734812158e-06 0.0000000000000000 8.0917427272564336e-10 1.7458548495774551e-10 8.6292395051756898e-07 0.00015513854193793369 1.7683883782244539e-11 1.8738785909072774e-11 5.7836937668441297e-12 0.0000000000000000 -18.921183722278450 -100.37968114352928 95.398064000337470 185.31956687594098 0.0000000000000000 0.0000000000000000 0.0000000000000000 0.0000000000000000 3.0342465539172156 3.0687408938789882 1.0344948338636539 1.0170210838893310 207.74271978272233 207.41739745643952 1.0171017159358615 
-31.238997159351065 -118.05072042149659 172.88072741396155 -31.238997159351051 -118.05072042149655 172.88072741396161 -48.346876484756578 8.5371563502340662e-06 8.4061993045008617e-06 4.7562747864750511e-06 0.0000000000000000 6.0622241291732849e-09 -1.0079517627491232e-08 2.1932393338695436e-07 0.00012394239962054582 -3.0210054592118440e-12 -2.9745732338173949e-12 -7.1908111406869863e-12 0.0000000000000000 -31.124431206993112 -117.97934695114738 173.21200361760444 258.17126679857051 0.0000000000000000 0.0000000000000000 0.0000000000000000 0.0000000000000000 3.0340374998196733 3.0683325335184097 1.0342955505773181 1.0171263251270692 213.78398567065054 213.78597933008678 1.0170032878021049 
-30.759222322118912 -133.24149055105167 164.37054230615993 -30.759222322118923 -133.24149055105170 164.37054230616005 -41.212193022623943 7.6920074079453308e-06 4.9623240248362432e-08 6.4127103114990498e-07 0.0000000000000000 1.1616496878661027e-08 -9.6994771957095345e-09 2.9815556514511429e-07 0.00011280062800242081 -5.4680173091409314e-12 -4.6135045651888304e-12 7.6375327943278429e-13 0.0000000000000000 -30.642131568542830 -133.13454878399213 164.80820313575899 262.24283076768535 0.0000000000000000 0.0000000000000000 0.0000000000000000 0.0000000000000000 3.0349553913957403 3.0702025690438002 1.0352478767941378 1.0175782239798077 205.27535830201217 205.26760696014688 1.0174711797239491 
-42.833725236767577 -120.16983886638545 163.27344861035559 -42.833725236767577 -120.16983886638539 163.27344861035556 -36.767339744134738 1.2823859286062393e-05 7.8696306021352566e-06 4.4691409902558505e-06 0.0000000000000000 2.5025747145282658e-08 -3.0144471169979213e-08 2.9578606832102931e-07 0.00011723082833455306 -1.0041930403288044e-11 -1.0317126075223440e-11 -3.0024574143372140e-11 0.0000000000000000 -42.676694985445003 -120.10595080876966 163.70375490782192 268.28772502602959 0.0000000000000000 0.0000000000000000 0.0000000000000000 0.0000000000000000 3.0384163576479319 3.0772046007869189 1.0387892716157587 1.0186308156130859 204.67298861622569 204.67213498642343 1.0192101312583768 
-23.844477581219589 -114.30490591697679 161.33322997057803 -23.844477581219593 -114.30490591697674 161.33322997057803 -48.080165510320406 4.1139235923646313e-06 3.1161025128112711e-06 4.8980053443759008e-06 0.0000000000000000 9.4184451557288718e-10 3.0111646509567436e-10 3.2711347452973882e-07 0.00011825726618779594 -4.1591513265502638e-12 -4.5138259061126749e-12 -1.7718914628362490e-12 0.0000000000000000 -23.747323328369049 -114.23396745764113 161.81277151251504 321.01516800445251 0.0000000000000000 0.0000000000000000 0.0000000000000000 0.0000000000000000 3.0334298879334547 3.0671127273117476 1.0336833580361704 1.0169549237123039 212.86814592930577 212.86900662039446 1.0167024303321428 
-6.5115908154022799 -105.03859644633414 108.23126168694637 -6.5115908154022826 -105.03859644633415 108.23126168694634 -29.068790898675697 3.6709341646344745e-07 -1.7380302961493480e-08 -1.0884755032753402e-05 -24.564880253736895 4.6671181849755605e-10 2.1667831417993000e-10 7.5051389680780289e-07 0.00011937948686264679 -1.1517589339212501e-12 9.1152371313587852e-14 2.6555330804282950e-11 0.00011087681830457822 -6.4634479885999987 -104.98755276399999 109.33149947120000 327.67017865987640 0.0000000000000000 0.0000000000000000 0.0000000000000000 0.0000000000000000 3.0337927719986912 3.0678535258309543 1.0340613630819713 1.0170419040750969 175.93531881983259 176.01809576944927 1.0168881901222551 
-11.870133371108183 -97.150989520869530 100.24408535091580 -11.870133371108183 -97.150989520869530 100.24408535091581 -39.720306958921334 -1.1374470817702235e-06 -2.9194825217407065e-07 -1.2030589372322581e-05 -37.834455653874741 6.1360133293830711e-10 1.4478049314980979e-10 8.1419844022434539e-07 0.00014119266092486204 2.9080003932113408e-12 -3.0664860417928387e-12 1.6659797489356512e-11 0.00014004561201482653 -11.806838433999999 -97.116880539599975 101.43768333439998 212.90238721710071 0.0000000000000000 0.0000000000000000 0.0000000000000000 0.0000000000000000 3.0335466465168612 3.0673486911316390 1.0338026120803561 1.0168794568376278 196.63678048379623 196.07628931537852 1.0167608948523326 
-15.924363541225219 -110.42270616369788 101.92345848718870 -15.924363541225210 -110.42270616369792 101.92345848718873 -35.299685782821918 5.2229650964419803e-06 -3.1272198691675934e-07 -2.2549834882651200e-05 0.0000000000000000 7.2473578180409771e-10 2.6574881184515675e-10 8.0080821351913301e-07 0.00013525799483436404 -1.4187277296286617e-11 3.9875465032550562e-12 3.9502504680711784e-11 0.0000000000000000 -15.849604639409371 -110.36010279166017 103.09742667861765 236.22178992679409 0.0000000000000000 0.0000000000000000 0.0000000000000000 0.0000000000000000 3.0335448388021216 3.0673544798142540 1.0338102373444327 1.0170473236096529 190.58336510930079 190.39719887102717 1.0167646592623287 
-23.846739302609073 -99.573522622661486 101.09823288048759 -23.846739302609077 -99.573522622661528 101.09823288048757 -35.625078081959082 5.8949773065065477e-06 1.0082247268358603e-05 -1.4617961662020924e-05 0.0000000000000000 9.4190561947260498e-10 1.6687243253876716e-10 8.0738802399338294e-07 0.00013936201121175147 5.6095558790823757e-12 -1.6031774435188304e-11 3.2239873240649879e-11 0.0000000000000000 -23.749578654390465 -99.534212460059550 102.28184693721489 211.57004919854941 0.0000000000000000 0.0000000000000000 0.0000000000000000 0.0000000000000000 3.0346429169369014 3.0695752993877630 1.0349330230676090 1.0173920992287349 193.73103894209871 193.83233358658069 1.0173164607400518 
-54.302407116290226 -108.39350577143708 112.79971120511834 -54.302407116290198 -108.39350577143706 112.79971120511840 -20.268497575030164 4.6571356106818167e-06 1.5921256379973795e-05 -1.1092200704222408e-05 0.0000000000000000 7.6651247890951247e-08 -1.9535750184578081e-08 7.7992767261858885e-07 0.00015594183038481583 5.4162814086605703e-13 2.2295675669376466e-11 -6.3480293138099553e-11 0.0000000000000000 -54.087034329299712 -108.37170302860723 113.84396407125838 191.01171882188567 0.0000000000000000 0.0000000000000000 0.0000000000000000 0.0000000000000000 3.0420195939187882 3.0844934447155996 1.0424753200185406 1.0205354281340075 188.82146356387514 188.82117882272766 1.0210168717368144 
-41.865299395844346 -107.77340881253508 109.89317103077992 -41.865299395844346 -107.77340881253515 109.89317103077988 -24.755251648778415 -3.5503056007478887e-06 1.0781615739457448e-05 1.2673531494077317e-06 0.0000000000000000 6.5864002610746854e-08 -3.6545241876291981e-08 8.0127624618384657e-07 0.00012478127786972384 2.6399373453149241e-11 -4.1551098585165138e-11 -2.3664803407387669e-11 0.0000000000000000 -41.690910404717421 -107.74885629568415 110.97670241767709 270.34727434602189 0.0000000000000000 0.0000000000000000 0.0000000000000000 0.0000000000000000 3.0395247150763498 3.0794166396240183 1.0398928711027517 1.0196412253604432 193.72729471585384 193.73019617479534 1.0197514143268194 