# For a description of the Tecplot format see the Tecplot User's guide.
#
Variables=x,y,z,s_u,s_v,s_w,s_p,mono_f_vel_u,mono_f_vel_v,mono_f_vel_w,const,u_nu,v_nu,w_nu,p_nu,x_nu,y_nu,z_nu,const,u_ref,v_ref,w_ref,vol_ref,x_ref,y_ref,z_ref,const,I1,I2,I3,J,p1,p2,p3
Zone f=fepoint, n=356, e=1130, et=brick, c=black
-66.7953 -97.6854 85.8935 -66.795303731367980 -97.685418635497641 85.893450062095312 -334.60827486237071 -6.5950308326402811e-05 6.4531104926446000e-05 0.00052887992014434028 1.2022126184259029e-18 1.6961524101910541e-08 9.1071428176547908e-10 3.0163684806794322e-05 0.0019754941946911746 5.4311236490170560e-10 -6.6651517156108015e-10 -1.8096247191198620e-09 -1.5586266115058723e-19 -65.754724465942431 -97.517594547729473 92.373562431030237 2074.8615187338191 0.0000000000000000 0.0000000000000000 0.0000000000000000 0.0000000000000000 3.1695119397069509 3.3454795310635750 1.1760380429498698 1.0844482845501633 1375.6145914703643 1363.6556596662099 1.0844524296220686 
-76.924015546891752 -131.06920430659216 71.609616355349502 -76.924015546891738 -131.06920430659216 71.609616355349516 -219.26110128578827 -0.00026791619948111185 -8.3255233050115611e-05 7.0999383763172257e-05 -57.643770001158494 1.9183738403372175e-08 2.7621708253988686e-09 3.3863085270979816e-05 0.0016120624934502891 2.3556382817997611e-09 8.4060315716689667e-10 -9.4407867450262819e-10 -0.00020600143975303554 -75.747104543999981 -130.56019973999997 78.884476808000016 2128.8259272129790 0.0000000000000000 0.0000000000000000 0.0000000000000000 0.0000000000000000 3.1694388178451351 3.3453626684321942 1.1759945868206483 1.0844482845501631 1183.5768589511722 1175.5608124381820 1.0844316436859782 
-64.431031067061951 -122.21311396768233 63.515410313405233 -64.431031067061951 -122.21311396768235 63.515410313405241 -95.618419450991468 0.00018747583929309863 9.1023465440829367e-06 -1.8680268767920394e-06 111.92776127794163 1.6442807920791225e-08 2.2710190394903407e-09 3.5959420904063677e-05 0.00090885905917685822 -1.5496482463852093e-09 1.0930368618119439e-10 -1.7147143073318143e-10 -0.00093362916814606581 -63.422274742800013 -121.79461816400000 71.240629883439979 1237.7701333319521 0.0000000000000000 0.0000000000000000 0.0000000000000000 0.0000000000000000 3.1698671476898763 3.3461328902953129 1.1763339489978237 1.0844482845501620 877.53852366459910 878.44290209407313 1.0845897464414744 
-57.061886286347473 -132.60423973339383 69.234399374122845 -57.061886286347473 -132.60423973339383 69.234399374122845 -158.33431951774256 0.00028582426200739186 -6.0887268467714058e-05 -0.00010152956095966493 -221.24989123435972 1.4826037203485853e-08 2.8472947333213483e-09 3.4478247760816316e-05 0.0011351002001098560 -2.4177529729336271e-09 7.1914992507768882e-10 1.2251328906633355e-09 0.0035206486114195338 -56.152318124399997 -132.07954718800002 76.641416164000006 2090.5778096190215 0.0000000000000000 0.0000000000000000 0.0000000000000000 0.0000000000000000 3.1685166447676738 3.3435053054122359 1.1750599627567004 1.0844482845501631 1118.2704769812628 1129.9514417304979 1.0840008380303991 
-124.71808142734982 -110.68811426382422 82.540771006756415 -124.71808142734980 -110.68811426382422 82.540771006756401 -518.23479915945859 -1.7553561515517822e-05 -1.6084546762583384e-05 -1.7102765181763281e-05 -466.65516276770870 2.9669664752818286e-08 1.6318369988610471e-09 3.1032002278053028e-05 0.0034935607842550469 8.3935994746654487e-11 5.3048316825322672e-11 6.6541749897531698e-10 0.0036218800759710520 -122.89786571200003 -110.38740333199999 89.207425400000020 2092.2379289329847 0.0000000000000000 0.0000000000000000 0.0000000000000000 0.0000000000000000 3.1697391949125673 3.3459182481186209 1.1762485033548435 1.0844482845501640 1794.3092691339716 1790.4431684130341 1.0845503046302214 
-124.58828423440518 -128.99188959087093 87.067131888388701 -124.58828423440515 -128.99188959087090 87.067131888388730 -531.30354253770133 -8.9516105258155512e-06 -0.00013598030087805008 -0.00015362344671131716 -747.04981857282792 2.9641187754281255e-08 2.6469685332486388e-09 2.9859710453550292e-05 0.0033893516080118922 2.5046230463512609e-11 9.4986576553168668e-10 6.6123033958708691e-10 0.0040132220250368939 -122.76981557999994 -128.50411506799998 93.481940963999989 2295.0048277193882 0.0000000000000000 0.0000000000000000 0.0000000000000000 0.0000000000000000 3.1697435428667760 3.3458900524651067 1.1762148066778157 1.0844482845501635 2005.1207280084632 1964.0728438976507 1.0845344996072139 
-88.668942057186186 -119.94852236984168 102.45297257361901 -88.668942057186129 -119.94852236984164 102.45297257361895 -279.76194025441640 1.4333538403859366e-05 0.00026626819490604183 -0.00026689514112600895 -4.9078526834119949e-19 2.1760563823081111e-08 2.1454208409821259e-09 2.5874898859967743e-05 0.0018788836191715840 -7.0430313109016720e-11 -2.0221759368032867e-09 1.0577348501716440e-09 5.9859774413230610e-20 -87.333945182495114 -119.55317056945796 108.01171823852533 1853.2119812635015 0.0000000000000000 0.0000000000000000 0.0000000000000000 0.0000000000000000 3.1692109087521212 3.3449144513742608 1.1757763282130509 1.0844482845501635 1378.6670263696280 1533.6771243100450 1.0843327722710534 
-123.70337113936195 -119.33840781068169 101.42152220650959 -123.70337113936195 -119.33840781068169 101.42152220650961 -277.24639412019002 -3.9021252827742409e-05 5.8399977452393216e-05 -0.00042891947834062730 -269.56760370995113 2.9447043276009669e-08 2.1115852399944406e-09 2.6142036386289647e-05 0.0019321500804247984 -4.2120250020565288e-11 -7.2684402606591412e-10 1.3028367256952780e-09 0.0014405889426826279 -121.89681335200000 -118.94929134799999 107.03765745040002 1571.7251237143605 0.0000000000000000 0.0000000000000000 0.0000000000000000 0.0000000000000000 3.1694899947997928 3.3453859907629031 1.1759637685548352 1.0844482845501628 1343.7382497682900 1173.5704846102396 1.0844185386377667 
-44.921665405549710 -164.47472983852984 119.01248970330130 -44.921665405549703 -164.47472983852990 119.01248970330130 -76.424572683850442 8.4989756123964434e-05 -3.0407516593209118e-06 -2.7855128913873517e-05 0.0000000000000000 1.2162498258527775e-08 4.6148357357722611e-09 2.1586114314686711e-05 -0.00041074796801699999 2.8767476559515890e-09 2.3957293778446950e-09 -2.2741169978116464e-09 0.0000000000000000 -44.175503749389662 -163.62432261291502 123.64986896362305 1288.7765825848380 0.0000000000000000 0.0000000000000000 0.0000000000000000 0.0000000000000000 3.1728390846686754 3.3527236364681552 1.1799680826847723 1.0861640572791480 1036.7861039698168 1253.0346609211445 1.0862634960402426 
-15.832856201913559 -144.51114896794081 132.15696326583139 -15.832856201913559 -144.51114896794076 132.15696326583137 -100.19066967798942 1.2449277931825358e-05 -8.4069830369062109e-05 -4.1039368812874444e-05 57.914938605374367 5.7804718234244482e-09 3.5076744842044154e-09 1.8181799148919708e-05 8.0055258050861853e-05 -1.9359252302317258e-10 -6.5762782588621356e-10 -4.1209645423888701e-09 0.0033079774579497646 -15.478227839600008 -143.86476845600004 136.06298808800005 1207.7015194609139 0.0000000000000000 0.0000000000000000 0.0000000000000000 0.0000000000000000 3.1689277384671115 3.3442291788393010 1.1753691497877621 1.0847854174618690 1114.3826203661088 1105.5628875599000 1.0841429899893844 
-44.921665405549710 -164.47472983852984 135.57200683298356 -44.921665405549696 -164.47472983852995 135.57200683298367 -129.21261389732749 4.2116490061490121e-05 -4.1430905237042303e-05 1.6008245987563204e-05 0.0000000000000000 1.2162498258527776e-08 4.6148357357722611e-09 1.7297329758747537e-05 0.00096915303011087326 -1.1647896985821812e-10 -3.4762589351305954e-10 3.9504513496899193e-10 0.0000000000000000 -44.175503749389669 -163.62432261291511 139.28801968872074 2260.0113226803110 0.0000000000000000 0.0000000000000000 0.0000000000000000 0.0000000000000000 3.1689417871883836 3.3442767082218992 1.1754034359134311 1.0850327353349680 1165.9072671173590 1098.1171595828857 1.0841614648210589 
-6.1055731645644995 -162.28677575354070 126.18721621771510 -6.1055731645645004 -162.28677575354067 126.18721621771510 -245.09497730312631 7.5225550606100832e-05 -1.4673591488072837e-05 7.9362438284765363e-05 -383.79033169031015 3.6463252139906643e-09 4.4934974630095326e-09 1.9727916633627274e-05 0.0014366683727997159 -8.2097059296587082e-10 1.1033920520199135e-09 -1.0742951579890570e-09 0.00049900926559798774 -5.8818733370400009 -161.45872929999999 130.42539591680000 1840.5999298976626 0.0000000000000000 0.0000000000000000 0.0000000000000000 0.0000000000000000 3.1690672918624325 3.3444877349304600 1.1754882570004808 1.0844482845501637 1394.3589125220135 1382.3412352550843 1.0841995405118925 
-10.057561316529437 -107.37582912132605 181.84785830865874 -10.057561316529435 -107.37582912132606 181.84785830865874 -191.87744080463634 2.1290629818604341e-05 3.0987840839326348e-05 -5.1091048693441270e-05 -197.39179760872162 4.5133830284260767e-09 1.4481403853849883e-09 5.3122485841328179e-06 0.0014473529677590231 5.5225127314991616e-11 -1.8585881591932061e-10 1.0802840274336892e-10 0.0013188303077580133 -9.7806680107999995 -107.10896956400003 182.98909712000000 1021.2952016557671 0.0000000000000000 0.0000000000000000 0.0000000000000000 0.0000000000000000 3.1695874280982297 3.3455995488273946 1.1760813254851057 1.0844482845501637 1252.8362737178466 1245.4663483399929 1.0844728524697986 
-17.948876570511491 -108.91987408510695 192.86570769210695 -17.948876570511491 -108.91987408510695 192.86570769210695 -211.36819999366330 -8.3162470171802263e-05 6.4552771862169179e-05 5.4861745036456386e-05 -230.88143198955532 6.2447203519333511e-09 1.5337838776829922e-09 2.4587123395036770e-06 0.0015646768795026041 3.1337859642487450e-10 -4.8310421250614814e-10 -2.6373597229708707e-10 0.0019098363616646403 -17.565766725200003 -108.63723447200002 193.39391677600000 1230.2822850381203 0.0000000000000000 0.0000000000000000 0.0000000000000000 0.0000000000000000 3.1695818565192875 3.3455838697522440 1.1760711037732727 1.0844482845501635 1311.7060360731739 1305.2409067705887 1.0844680234292563 
-44.921665405549710 -119.94852236984168 168.69104109234814 -44.921665405549781 -119.94852236984177 168.69104109234826 -221.73209305201053 -7.6227697933687974e-06 3.2436207749629388e-05 8.3673103339223921e-05 0.0000000000000000 1.2162498258527776e-08 2.1454208409821263e-09 8.7197606664091171e-06 0.0015699986101278597 2.1834093383658551e-11 -3.7307566237955902e-10 -3.3095465445897444e-10 0.0000000000000000 -44.175503749389591 -119.55317056945772 170.56432113891603 1872.3464537223574 0.0000000000000000 0.0000000000000000 0.0000000000000000 0.0000000000000000 3.1693477688316762 3.3451243878295371 1.1758463148462976 1.0844482845501631 1302.0608061612393 1326.3221710488185 1.0843650705293344 
-9.6026095762053298 -124.84247620715327 188.06956324441134 -9.6026095762053298 -124.84247620715327 188.06956324441131 -209.88288675244388 3.0655559700038111e-05 -0.00018550237175660693 -7.0411962086468842e-05 -215.86351971195771 4.4135683996415773e-09 2.4168375079014481e-09 3.7008760056522765e-06 0.0014782976976976667 1.2437888119813047e-10 1.1328570180579631e-09 1.6715337850628327e-10 0.0012539401946040131 -9.3318398883999993 -124.39710846400000 188.86462832000004 1016.3527334425750 0.0000000000000000 0.0000000000000000 0.0000000000000000 0.0000000000000000 3.1695870783558684 3.3455922491809673 1.1760741978663833 1.0844482845501662 1340.8442847245713 1335.3328664996261 1.0844693599465751 
-44.921665405549710 -164.47472983852984 102.45297257361901 -44.921665405549703 -164.47472983852992 102.45297257361896 -167.46485393316982 -5.7758561048287247e-05 -0.00026824585413022842 -8.9636404963386914e-05 5.6975118137069245e-18 1.2162498258527776e-08 4.6148357357722603e-09 2.5874898859967743e-05 0.0011622266953438204 5.7475205219775699e-10 1.8757027254069659e-09 1.6343907740553849e-10 -7.4006094588357210e-19 -44.175503749389662 -163.62432261291499 108.01171823852535 1450.3671205666894 0.0000000000000000 0.0000000000000000 0.0000000000000000 0.0000000000000000 3.1715731785363968 3.3497489863825640 1.1782482416232047 1.0856540346605870 1026.7407159020340 1164.7247792386258 1.0854676942186143 
-62.131459018362342 -161.77768949559731 79.147317696322176 -62.131459018362335 -161.77768949559731 79.147317696322190 -521.23494924987199 -0.00012039940321500415 -0.00045027558102043205 -9.8248850059384657e-05 -183.77115167471845 1.5938289049666210e-08 4.4652460617911061e-09 3.1910879981111862e-05 0.0032251900855488945 6.2822855738016505e-10 3.8670120144077720e-09 1.2657227700299987e-09 0.0028287954175331633 -61.153654769600031 -160.95484587600001 86.002782780800032 1645.6757988676138 0.0000000000000000 0.0000000000000000 0.0000000000000000 0.0000000000000000 3.1607111918301660 3.3274367274018171 1.1667903042360845 1.0825141217547987 1864.3622777025912 1856.6833858434470 1.0801826795477087 
-44.979640504449655 -168.89721529106436 76.260291416213946 -44.979640504449655 -168.89721529106436 76.260291416213946 -810.10104781831660 0.00018814887992244227 -0.00072320501368349941 -0.00012424019780731246 -602.54371014667345 1.2175214419984925e-08 4.8601073165954745e-09 3.2658597046264497e-05 0.0048196916993986259 -1.1456320349123587e-09 5.8745812568676143e-09 1.6563202638743821e-09 0.0057406092813396693 -44.232698507600013 -168.00161050399998 83.276389748800028 1737.4139093181343 0.0000000000000000 0.0000000000000000 0.0000000000000000 0.0000000000000000 3.1703505016639730 3.3471501550362719 1.1768689969190052 1.0844482845501628 2362.3470563953156 2340.9358458632423 1.0848371232206551 
-44.921665405549710 -186.73783357287391 102.45297257361901 -44.921665405549689 -186.73783357287380 102.45297257361892 -701.67846120003901 1.9196014505979182e-05 -0.00023385294722871067 -0.00059638751097809434 -2.8156641594357662e-19 1.2162498258527776e-08 5.8495287502680071e-09 2.5874898859967750e-05 0.0043388364194415349 -1.7882615535128788e-11 2.0803207749216833e-09 1.8160786203145160e-09 3.7247370586792978e-20 -44.175503749389676 -185.65989863464350 108.01171823852533 1616.4576808433910 0.0000000000000000 0.0000000000000000 0.0000000000000000 0.0000000000000000 3.1674230861991224 3.3411233807039658 1.1737670013810750 1.0840203027767186 2214.7935922303745 2208.2307239313245 1.0834047012208454 
-88.668942057186186 -142.21162610418577 135.57200683298356 -88.668942057186129 -142.21162610418571 135.57200683298367 -209.40309872398998 -1.2771472744881014e-05 -2.5294534625296438e-05 6.1166689432481526e-06 0.0000000000000000 2.1760563823081114e-08 3.3801424992319085e-09 1.7297329758747534e-05 0.0011957664283095515 1.4890345446375689e-10 7.4579331335952799e-12 5.0240771769102841e-10 0.0000000000000000 -87.333945182495100 -141.58874659118649 139.28801968872074 1877.7986991733408 0.0000000000000000 0.0000000000000000 0.0000000000000000 0.0000000000000000 3.1716960023573795 3.3500083432688363 1.1783827934066984 1.0852454121832864 1300.0425800808000 1289.4570048208113 1.0855359795081727 
-66.795303731367952 -164.47472983852984 135.57200683298356 -66.795303731367923 -164.47472983852998 135.57200683298370 -174.30302746279557 -5.8418544538785816e-05 1.7762260798465781e-05 4.9247290647181999e-05 4.1543698444840927e-19 1.6961524101910541e-08 4.6148357357722603e-09 1.7297329758747537e-05 0.00022574171818481509 3.4912029575129614e-11 -1.7342985270109547e-10 -3.5663024256433252e-09 -5.5645232117868145e-20 -65.754724465942374 -163.62432261291517 139.28801968872077 2018.1238718776010 0.0000000000000000 0.0000000000000000 0.0000000000000000 0.0000000000000000 3.1689090296639826 3.3442393498827947 1.1753995364241019 1.0854510499105838 1235.4544089352571 1240.1331347660666 1.0841590298352346 
-88.668942057186186 -164.47472983852984 119.01248970330130 -88.668942057186129 -164.47472983852995 119.01248970330123 -274.38668221249651 -0.00011501394072095398 -5.8236957985386842e-05 1.3105652367293665e-05 0.0000000000000000 2.1760563823081114e-08 4.6148357357722594e-09 2.1586114314686711e-05 0.0012207578286976921 3.1562453868452970e-09 1.9865734136842242e-09 1.2040803502104713e-09 0.0000000000000000 -87.333945182495114 -163.62432261291505 123.64986896362312 1549.0027140339625 0.0000000000000000 0.0000000000000000 0.0000000000000000 0.0000000000000000 3.1713931958159942 3.3492524959000929 1.1779293501293402 1.0850581825559722 1384.2127721778115 1484.5354769439168 1.0853222363439488 
-88.668942057186186 -142.21162610418577 119.01248970330130 -88.668942057186129 -142.21162610418571 119.01248970330120 -170.05061424317802 -9.7353695171487447e-05 -4.6850314939624422e-05 0.00012593435085751350 0.0000000000000000 2.1760563823081114e-08 3.3801424992319080e-09 2.1586114314686711e-05 -4.4883616342380464e-05 2.0557094450135703e-09 -1.5642111591768495e-09 -5.0213726435259913e-10 0.0000000000000000 -87.333945182495086 -141.58874659118649 123.64986896362313 1389.1126189879024 0.0000000000000000 0.0000000000000000 0.0000000000000000 0.0000000000000000 3.1695261588598242 3.3456397798662034 1.1761813942820394 1.0852313963706031 1157.2600720580690 1477.2416238351670 1.0845234287806347 
-45.957741088842440 -110.63386736748599 39.802525418324095 -45.957741088842447 -110.63386736748596 39.802525418324088 -896.27491533664295 0.00020213442028412396 6.7833272584780457e-05 -0.00024816557881999514 -889.38483185342432 1.2389809539437024e-08 1.6288413950960032e-09 4.2100871381123284e-05 0.0060023397597714087 -9.4316885067066998e-10 2.7133689981400581e-10 1.8685509879537497e-09 0.0062968235566055889 -45.197633928000002 -110.33371083599998 48.847122559999995 1069.0094105005942 0.0000000000000000 0.0000000000000000 0.0000000000000000 0.0000000000000000 3.1695507630315367 3.3455228175206906 1.1760412212694435 1.0844482845501635 2576.3221467020007 2576.5330557169832 1.0844543409935310 
-58.046453435844604 -99.012645808689484 37.027010149127875 -58.046453435844583 -99.012645808689456 37.027010149127854 -897.13108765418860 2.3398999155043453e-05 8.0609000044302764e-05 -0.00018566194288571986 -774.99578237239757 1.5042044304580667e-08 9.8432828554706475e-10 4.2819707982033606e-05 0.0062753676618306576 8.1336990560409108e-11 -2.2580422601641132e-10 1.1733358152327629e-09 0.0066768941176098585 -57.123633070400032 -98.831257531200038 46.226036100800002 1475.5774262919704 0.0000000000000000 0.0000000000000000 0.0000000000000000 0.0000000000000000 3.1695391159744108 3.3454990386819459 1.1760290952436596 1.0844482845501635 2476.0931823000506 2476.1400935961919 1.0844487524983284 
-61.103610608188411 -105.83813825204626 48.712028048583470 -61.103610608188426 -105.83813825204628 48.712028048583456 -599.11342328077546 9.5435531010605879e-06 0.00037158083061053650 -0.00037191834344426169 -16.351732579619746 1.5712778439480601e-08 1.3628679296218138e-09 3.9793380354424812e-05 0.0041581818688899760 5.4979998394371801e-10 -2.4305815724398596e-09 3.7251138141641401e-09 0.0055533519512862128 -60.139641125599979 -105.58699381199996 57.260903223199996 1724.6135661994952 0.0000000000000000 0.0000000000000000 0.0000000000000000 0.0000000000000000 3.1695103483636875 3.3454417975086859 1.1760006863418615 1.0844482845501637 1991.7800632999943 1991.1045212354986 1.0844356438537359 
-19.814238339870105 -88.186805141867524 49.176017690141364 -19.814238339870109 -88.186805141867552 49.176017690141364 -734.32531758013113 -4.5586147082986988e-06 -0.00012644638373161251 -0.00039284288274144371 -746.74303965422780 6.6539765641859824e-09 3.8392489187799583e-10 3.9673210693536014e-05 0.0050192165163791165 -2.8796860275587180e-10 4.3706364667620788e-10 1.3543129370602312e-09 0.0053119612985844241 -19.406020858399991 -88.116056368799974 57.699076624800000 1439.6451283969650 0.0000000000000000 0.0000000000000000 0.0000000000000000 0.0000000000000000 3.1695111146716277 3.3454412487609608 1.1759992988320409 1.0844482845501635 2260.7978287564843 2260.8347154151352 1.0844350235771942 
-59.721908773803037 -179.59324275559999 71.472703576326793 -59.721908773803051 -179.59324275559996 71.472703576326793 -1346.3124617004389 -1.9900321983350510e-05 -0.00010398279891226716 -0.00017970157094821765 -1668.6070528683294 1.5409639370078665e-08 5.4533187965333241e-09 3.3898544598898190e-05 0.0074585299523973140 -3.9945787264659409e-11 4.0659234427806627e-10 1.9018577373959037e-09 0.010934611434883111 -58.776536899199989 -178.58832514800000 78.755181813599989 1584.4809985467919 0.0000000000000000 0.0000000000000000 0.0000000000000000 0.0000000000000000 3.1714009956687197 3.3493526580008091 1.1780230054340870 1.0844482845501633 3508.1124888818795 3513.7785413856936 1.0853699942192259 
-75.622773063624606 -186.01334396978302 64.558589895053643 -75.622773063624621 -186.01334396978299 64.558589895053629 -1247.0249085081848 0.00043539616825913769 -0.00039854480120578300 -1.3684180770668049e-05 -1192.7007362873849 1.8898248549392708e-08 5.8093690968874512e-09 3.5689245606818076e-05 0.0071561686259836868 -3.2307677537636281e-09 2.5335655524646250e-09 7.6071138274473972e-11 0.0065601020637957629 -74.463376691600018 -184.94281327599995 72.225767276240006 1182.3928641350060 0.0000000000000000 0.0000000000000000 0.0000000000000000 0.0000000000000000 3.1700990925211374 3.3466211095355640 1.1765908157111775 1.0844482845501631 3071.2721007428668 3071.7559915571114 1.0847076980539463 
-70.831681932868619 -212.93412497547965 79.771533875193768 -70.831681932868619 -212.93412497547962 79.771533875193768 -1373.6873440163663 2.9574646501320884e-05 4.1459969551339635e-05 -0.00020538063074001582 -1443.8665317309299 1.7847101824175485e-08 7.3023843638608818e-09 3.1749212897835832e-05 0.0075251422985186814 -2.8396116177285383e-10 -5.7460277981587205e-11 7.6331709295778463e-10 0.0079512414905804369 -69.736773305200003 -211.58846536000007 86.592267764799999 1391.6778601551057 0.0000000000000000 0.0000000000000000 0.0000000000000000 0.0000000000000000 3.1690953721291817 3.3446191369902705 1.1755934796660696 1.0844482845501640 3529.3385613444070 3529.3871256276111 1.0842481994295825 
-88.141744935494799 -208.57502647322380 83.706324893649082 -88.141744935494813 -208.57502647322374 83.706324893649054 -1101.0853726199323 0.00040559512618767139 -0.00021860809557279696 -0.00010411157847725748 -1216.2492386621104 2.1644890130234629e-08 7.0606364088732213e-09 3.0730133003586957e-05 0.0062740156138775278 -2.8006067619419276e-09 1.5934026959096578e-09 2.4643127633044918e-10 0.0068089909448539659 -86.813844096400004 -207.27391660800001 90.308128229600001 1955.0875990986240 0.0000000000000000 0.0000000000000000 0.0000000000000000 0.0000000000000000 3.1709138299946669 3.3483469249360591 1.1775039679999666 1.0844482845501635 2947.7879959181159 2950.7505532795449 1.0851305988146647 
-75.531784579123212 -213.94129637252854 94.665018701597020 -75.531784579123212 -213.94129637252854 94.665018701597020 -1149.0997338774814 -0.00017113809634887168 6.9439272781205715e-05 0.00025954586741372133 -1365.7744654737824 1.8878294510971113e-08 7.3582276938211083e-09 2.7891917589784036e-05 0.0062287840059182826 7.4715846301839208e-10 -3.9073159104451369e-10 -2.3444442006527790e-10 0.0070715917375895566 -74.373612905599998 -212.58534351999998 100.65708370800000 988.41240310934302 0.0000000000000000 0.0000000000000000 0.0000000000000000 0.0000000000000000 3.1697921201262145 3.3460694508788196 1.1763481038168715 1.0844482845501631 3414.7083984825704 3414.5896276674089 1.0845975053612202 
-66.795303731367952 -186.73783357287391 102.45297257361901 -66.795303731367923 -186.73783357287380 102.45297257361894 -694.75627300935264 2.9555123248435303e-05 -0.00032396914168720918 -0.00031820156346340842 2.9472572156235453e-19 1.6961524101910541e-08 5.8495287502680071e-09 2.5874898859967743e-05 0.0041872871015276019 -3.0799605130294942e-10 2.6151295156887481e-09 7.1287363085675933e-10 -6.0055713097150703e-20 -65.754724465942374 -185.65989863464350 108.01171823852535 1808.0980320372519 0.0000000000000000 0.0000000000000000 0.0000000000000000 0.0000000000000000 3.1676342663332560 3.3414087146970366 1.1738372921810427 1.0839297552468614 2124.6087965381143 2112.7131560381436 1.0834331050429931 
-84.743518384073781 -209.67295710068478 103.52584107589080 -84.743518384073795 -209.67295710068476 103.52584107589078 -797.25264498092861 0.00054758187742905259 -0.00036943923096723497 -0.00071040915527315160 -783.78675285133329 2.0899328295742592e-08 7.1215303654170717e-09 2.5597034362334629e-05 0.0046248468045749459 -4.1667826588559615e-09 2.1570200173566415e-09 2.0474156902124435e-09 0.0043076718783163206 -83.461357431600007 -208.36062644399999 109.02489266960001 1287.0831768928649 0.0000000000000000 0.0000000000000000 0.0000000000000000 0.0000000000000000 3.1706119618483606 3.3477548692828525 1.1772142954741238 1.0844482845501635 2425.7630836511039 2447.0406108345755 1.0849954276885201 
-42.269301804366599 -130.54997046489319 57.706212879797746 -42.269301804366599 -130.54997046489322 57.706212879797739 -504.38435781728043 0.00014861260766884250 -3.7312828116980003e-05 -0.00013870890369778284 -570.41951172727590 1.1580570530300704e-08 2.7333865171286216e-09 3.7463957301753226e-05 0.0034344792983365671 -1.0813902721298158e-09 7.0743321967317596e-10 1.2226414478776838e-09 0.0045471022800460947 -41.558840772800004 -130.04627243999997 65.754654395919971 2180.9238908936368 0.0000000000000000 0.0000000000000000 0.0000000000000000 0.0000000000000000 3.1697210338793083 3.3458686558027968 1.1762167410987472 1.0844482845501635 1891.5194431821617 1892.9380243022863 1.0845351517311814 
-23.242458944707398 -134.99423280091077 47.277290193041921 -23.242458944707401 -134.99423280091079 47.277290193041914 -806.52808527137188 2.3011219181818874e-05 3.5741855438651815e-05 -3.2416880778062168e-05 -849.14614905541293 7.4061221322363480e-09 2.9798453704543708e-09 4.0164966161881921e-05 0.0053828560435658064 -1.4189113969278352e-10 -1.8868768211473141e-10 2.1473299405702581e-10 0.0052340679720099814 -22.788097858800000 -134.44511465599999 55.905993737599999 935.86986824075086 0.0000000000000000 0.0000000000000000 0.0000000000000000 0.0000000000000000 3.1694178141857878 3.3452484447601369 1.1758997034137229 1.0844482845501642 2373.6749313705882 2372.3453494945902 1.0843892436635105 
-11.319650332118671 -103.83308950662176 53.845385376753249 -11.319650332118671 -103.83308950662173 53.845385376753249 -743.36820915372516 5.9403876789382723e-06 -0.00013963294192607178 -0.00026472323518579100 -668.21758789130956 4.7902838917757143e-09 1.2516724323674566e-09 3.8463881223194107e-05 0.0049715130500581975 -3.1372468519009925e-10 6.6259943718406839e-10 9.4334229853489220e-10 0.0045674778469872159 -11.025769398400001 -103.60243655599999 62.108642139439993 1284.9349949311236 0.0000000000000000 0.0000000000000000 0.0000000000000000 0.0000000000000000 3.1694789654844508 3.3453765892158298 1.1759668158525247 1.0844482845501635 2338.5969495182917 2338.2895789980544 1.0844200709424368 
-29.533290017545987 -141.37867521610224 62.277130198001650 -29.533290017545987 -141.37867521610224 62.277130198001650 -578.14409580651397 7.2042124668305666e-05 6.8986114071434190e-05 -0.00020299826990180996 -559.13961630295591 8.7863169240254280e-09 3.3339387917052940e-09 3.6280125703669348e-05 0.0038388385644791026 -4.0197471483251291e-10 1.1476944904871846e-10 1.4285635946852082e-09 0.0055513582912401268 -28.994254794799993 -140.76430841599998 70.071247290159988 2176.9829965296321 0.0000000000000000 0.0000000000000000 0.0000000000000000 0.0000000000000000 3.1698768207105479 3.3462015978707198 1.1763943292672785 1.0844482845501633 2002.6526537933985 2006.9379598172147 1.0846166596694546 
-104.96067511379081 -195.21853015733097 87.658511291210488 -104.96067511379080 -195.21853015733095 87.658511291210502 -707.42388655937737 2.7996366294489749e-05 -9.1626402315901330e-05 -0.00026778947430855347 -925.75090539683447 2.5334935732646002e-08 6.3198862809699100e-09 2.9706547842067724e-05 0.0045221703352657898 -3.4396851719950805e-10 5.0768230352804469e-10 1.1373837604166484e-09 0.0048072053295137090 -103.40639267600000 -194.05392295999994 94.040416199999996 2662.2783756828549 0.0000000000000000 0.0000000000000000 0.0000000000000000 0.0000000000000000 3.1696387557778367 3.3457417956503805 1.1761732721648770 1.0844482845501633 2227.2626680483486 2234.5596410999024 1.0845158804808341 
-83.777661411420368 -163.13812957946428 70.463249585719012 -83.777661411420411 -163.13812957946436 70.463249585719026 -817.95920996566099 -9.5885872024156871e-05 -3.7799989901254996e-05 -0.00011750020441100071 -1026.9245481512005 2.0687424912013693e-08 4.5407110293993469e-09 3.4159985242254720e-05 0.0052146293971484540 7.1006041065354402e-10 2.8197238508057415e-10 1.4486362907796993e-09 0.0074533620278015014 -82.508500824799995 -162.30138233600007 77.801893530400037 2229.3857910936085 0.0000000000000000 0.0000000000000000 0.0000000000000000 0.0000000000000000 3.1709337862267404 3.3483817302418499 1.1775185099640380 1.0844482845501633 2405.2422752229545 2399.6721426208601 1.0851368532307897 
-28.516443770116357 -125.51429830342775 123.15236898572186 -28.516443770116350 -125.51429830342784 123.15236898572178 -55.681996016314891 1.4502189994728447e-05 -1.5469664285790336e-05 5.5748390356910860e-05 -1.7099156459289760e-19 8.5632240465205456e-09 2.4540948162510286e-09 2.0513918169484672e-05 0.00029127474904834809 1.2219224280818285e-09 4.5773340777258823e-10 -2.7685540148412729e-10 1.9266787011746725e-20 -27.991095225219734 -125.06206457489009 127.55940664489751 1124.7619503421174 0.0000000000000000 0.0000000000000000 0.0000000000000000 0.0000000000000000 3.1675935004670195 3.3412924410119835 1.1737623951982787 1.0846013547622864 904.57056047029721 880.81807387829747 1.0834058403949360 