# For a description of the Tecplot format see the Tecplot User's guide.
#
Variables=x,y,z,s_u,s_v,s_w,s_p,mono_f_vel_u,mono_f_vel_v,mono_f_vel_w,const,u_nu,v_nu,w_nu,p_nu,x_nu,y_nu,z_nu,const,u_ref,v_ref,w_ref,vol_ref,x_ref,y_ref,z_ref,const,I1,I2,I3,J,p1,p2,p3
Zone f=fepoint, n=1339, e=6475, et=brick, c=black
-58.6964 -70.4700 176.310 -58.696351378621110 -70.470006517534898 176.31016108594261 -18.460210286850103 3.3669690534849890e-09 -6.9867896602119069e-08 1.6745301213400112e-07 -18.509550104596435 1.0746785406023918e-12 -4.8638176819437717e-14 1.1797146592940067e-10 9.5658518251822639e-08 2.3615267183004796e-16 -5.6506301266568081e-16 5.1232167863412935e-16 9.6054062522788266e-08 -58.668039002000000 -70.473359259200009 176.35421013599998 215.13583165143561 0.0000000000000000 0.0000000000000000 0.0000000000000000 0.0000000000000000 3.0049122686910503 3.0098302134297681 1.0049179466525218 1.0024151697295633 51.114275016563560 51.160405916176096 1.0024559676351432 
-64.994011817193751 -76.413180631371262 183.99345309445488 -64.994011817193737 -76.413180631371247 183.99345309445485 -18.964586900155297 -1.8488856693564148e-07 -4.7847513105510590e-07 5.2167587611788482e-07 -18.947476026314405 1.1736826788233401e-12 -2.3779589408690072e-14 8.3173634646271921e-11 9.5699335817889865e-08 1.1349211047493784e-15 -4.0185632481032974e-16 -7.6637498424367661e-16 9.6711991050451459e-08 -64.963123215600007 -76.414687385200040 184.02450960799996 253.42820447565578 0.0000000000000000 0.0000000000000000 0.0000000000000000 0.0000000000000000 3.0050221029136286 3.0100502247018990 1.0050281239147050 1.0024151697295640 52.416827096818906 52.413408723453216 1.0025109297462900 
-69.696404848938215 -71.581138620262351 177.19411801944005 -69.696404848938201 -71.581138620262337 177.19411801944008 -18.566315977166138 -1.9661372777582152e-07 -1.0365970989796293e-07 9.4144487861696139e-08 -18.743877950422110 1.2503331703328513e-12 -4.4832193513144603e-14 1.1398548771524020e-10 9.6077349947318686e-08 9.6921560947190732e-16 -2.1673565568429203e-16 5.4220727730209313e-16 9.6605490275053251e-08 -69.663592608799988 -71.584146237200002 177.23667228800005 218.29881668600640 0.0000000000000000 0.0000000000000000 0.0000000000000000 0.0000000000000000 3.0050899596567717 3.0101860472013331 1.0050960897224999 1.0024151697295631 51.977796763554807 51.969275708149894 1.0025448377354456 
-57.192702551400288 -87.728782267968185 171.61885663902990 -57.192702551400309 -87.728782267968185 171.61885663903004 -17.960286806421898 -2.9648534979624326e-07 3.6946259872772256e-07 1.1446375723514733e-06 0.0000000000000000 1.0492891278079952e-12 3.8420655545934324e-14 1.3922951680456208e-10 9.4703145674126028e-08 9.5211534235459166e-16 -1.8266707331936809e-15 -2.0509073718026428e-16 0.0000000000000000 -57.165005282198301 -87.726774323660578 171.67083873969227 259.76550921814646 0.0000000000000000 0.0000000000000000 0.0000000000000000 0.0000000000000000 3.0043837421506514 3.0087715327199178 1.0043877914037256 1.0022393707317689 48.236184846497800 48.223842581304716 1.0021914746836369 
-88.939028677548521 -83.378579121801266 116.96852378616259 -88.939028677548521 -83.378579121801280 116.96852378616265 -16.833109055077571 -2.0009660107001895e-07 6.8578456799146942e-07 -2.9179154133706493e-07 0.0000000000000000 1.5507560513494665e-12 9.6624097611908155e-15 3.8674874414112987e-10 1.0395539249929667e-07 4.0114775556464262e-18 -1.7995325049307370e-15 1.3717148427653202e-15 0.0000000000000000 -88.898344731952406 -83.377922378373768 117.11292023788836 283.91631954144174 0.0000000000000000 0.0000000000000000 0.0000000000000000 0.0000000000000000 3.0043971201381137 3.0087974254940564 1.0044003057103021 1.0022491183382776 46.294099002769471 46.294678403995171 1.0021977280181238 
-97.639936070452862 -66.897238166467261 108.06069170499892 -97.639936070452890 -66.897238166467247 108.06069170499890 -17.981157668203661 -3.5967428637463627e-08 1.7289059936256010e-07 -1.2613359578504480e-06 -18.170418598387382 1.6799582558402195e-12 -7.2841038756266130e-14 4.2708608871677716e-10 1.0607059654828471e-07 -4.0241806620852859e-16 -2.5288262716019368e-16 2.2443729295474925e-15 1.0598997865830523e-07 -97.595692787999965 -66.901700632800015 108.22015140479995 322.25788568967050 0.0000000000000000 0.0000000000000000 0.0000000000000000 0.0000000000000000 3.0050177368165127 3.0100417199936911 1.0050239854289964 1.0024151697295625 50.660942989483303 50.661989227718095 1.0025088658550771 
-79.699437089066720 -67.527183368803435 108.45668473867208 -79.699437089066748 -67.527183368803435 108.45668473867210 -17.705441820199393 -4.0627085752714469e-07 3.1733885768391398e-07 -5.9922616515551658e-07 0.0000000000000000 1.4042482454623697e-12 -7.5099648721987933e-14 4.2529246790934389e-10 1.0548732092981944e-07 1.6775705058411970e-15 -6.9852138846690051e-16 1.9086081708126971e-15 0.0000000000000000 -79.662532843379708 -67.531450170133141 108.61547480962874 295.38956150422752 0.0000000000000000 0.0000000000000000 0.0000000000000000 0.0000000000000000 3.0045924444786323 3.0091895108909852 1.0045970677031379 1.0023064749244710 48.595654361548412 48.595781042113380 1.0022958838158578 
-94.520755180813055 -81.839682300952006 108.46753649596744 -94.520755180813026 -81.839682300952049 108.46753649596745 -17.653364459498587 -5.4920969162364280e-07 3.9412703483863190e-07 -9.2143547017581482e-07 0.0000000000000000 1.6346125841781856e-12 -8.8470897274817162e-16 4.2525072352361798e-10 1.0623197851024080e-07 2.4322691639966641e-15 -7.3173040884964160e-16 2.5855373355438718e-15 0.0000000000000000 -94.477787882002133 -81.839503548705352 108.62630821647583 293.80807890400462 0.0000000000000000 0.0000000000000000 0.0000000000000000 0.0000000000000000 3.0045694397656559 3.0091431372330266 1.0045736985454530 1.0022978308574606 48.254636586133913 48.248499650963296 1.0022842235096581 
-47.320606164181925 -125.97660719039965 138.57103270938708 -47.320606164181960 -125.97660719039960 138.57103270938711 -12.510969859710494 -1.0178633559505095e-07 3.8138469585020474e-07 1.5190082618878769e-06 0.0000000000000000 2.9244183418823392e-11 -1.6700670949854082e-11 2.5697224442544894e-10 9.2803897391927940e-08 1.6009378841974115e-15 -2.0524469028111348e-15 2.8764731128716420e-15 0.0000000000000000 -47.292355390977058 -125.96433165720771 138.67232254046354 244.31333887135355 0.0000000000000000 0.0000000000000000 0.0000000000000000 0.0000000000000000 3.0054578253542461 3.0109240665386396 1.0054662451258778 1.0027534652334864 42.872535653930072 42.872700322910610 1.0027293963537895 
-34.216980138161190 -140.45223358862745 139.10999298033562 -34.216980138161176 -140.45223358862754 139.10999298033570 -12.643187633374051 6.1711949231650897e-07 -2.7892387415160125e-07 8.0837155510739817e-07 0.0000000000000000 1.2457299693961712e-11 4.6362117375539136e-12 2.7127999379449049e-10 8.8801431674261762e-08 -7.6360866571733739e-16 -6.4211423121200602e-16 3.2145417738858283e-15 0.0000000000000000 -34.196989160350306 -140.43319657724166 139.21506628885933 210.16870282748488 0.0000000000000000 0.0000000000000000 0.0000000000000000 0.0000000000000000 3.0053176708764231 3.0106428810154195 1.0053252131797874 1.0026658982038190 42.629849881750410 42.629813017449429 1.0026590762761598 
-30.965198123590277 -127.65554546158451 142.62763631194832 -30.965198123590291 -127.65554546158452 142.62763631194832 -13.204421857787318 4.2265978103123556e-07 1.8370233451368571e-07 1.3308775742067923e-06 0.0000000000000000 6.4510202735235112e-13 2.4579990820505770e-13 2.7053936868526307e-10 8.9925115093277359e-08 -3.1969661285058548e-17 -1.4282106972607506e-15 2.5909599445958202e-15 0.0000000000000000 -30.948229910445860 -127.64113600963313 142.72864290474456 229.21992526850030 0.0000000000000000 0.0000000000000000 0.0000000000000000 0.0000000000000000 3.0051482112453307 3.0103031344673643 1.0051549257321237 1.0025939098217926 42.980851348760474 42.980741041261602 1.0025741431847317 
-48.434624699659558 -130.91927545045763 146.77056947462967 -48.434624699659558 -130.91927545045758 146.77056947462964 -13.031518657311391 3.0353392603242539e-07 9.7538130205499737e-07 1.2565508964001762e-07 0.0000000000000000 3.0508158143591610e-11 -1.5219908132005717e-11 2.2515261605034126e-10 8.9022678943135822e-08 -4.3897971905158353e-16 -5.4010385772097644e-15 5.1535846843709595e-15 0.0000000000000000 -48.406431667502837 -130.90513559487593 146.85896726379221 225.63426853136377 0.0000000000000000 0.0000000000000000 0.0000000000000000 0.0000000000000000 3.0054494431524286 3.0109070545691115 1.0054576150250538 1.0027084948647624 43.470618123982455 43.470744280872061 1.0027250924755433 
-53.036353841548902 -84.937731349924931 77.489447926491309 -53.036353841548895 -84.937731349924903 77.489447926491280 -17.593553467702673 -3.2881519662223786e-07 2.2410639526329112e-06 -5.0824702989402291e-06 0.0000000000000000 1.0224610296671382e-11 -1.5868403440962034e-11 6.0376746815777652e-10 1.0704300623869798e-07 4.5265678217678301e-16 5.8150139918014833e-16 1.1015737730798522e-14 0.0000000000000000 -53.009977022357148 -84.940192361847963 77.707205907375524 356.07450292316213 0.0000000000000000 0.0000000000000000 0.0000000000000000 0.0000000000000000 3.0046285776684365 3.0092616850103107 1.0046331082814257 1.0023387473188297 47.217228046118635 47.201379077349891 1.0023138460217629 
-40.333991479766944 -85.653179011624900 67.257887693093821 -40.333991479766937 -85.653179011624886 67.257887693093821 -20.556919355615257 -1.8444918557478221e-07 7.6043163508554264e-07 -2.5980952570255061e-06 0.0000000000000000 2.9873170160445926e-12 -3.2101720998284770e-12 6.2698469070712191e-10 1.1245605803193139e-07 3.9007766629019133e-16 -1.0753423098290957e-15 -2.4628729893940023e-16 0.0000000000000000 -40.313282635619565 -85.652866469445740 67.489144002613742 334.72004880612383 0.0000000000000000 0.0000000000000000 0.0000000000000000 0.0000000000000000 3.0045084685437806 3.0090218930639874 1.0045134260453634 1.0023090608989587 53.302737396134873 53.321507678617017 1.0022541621179151 
-42.951401057886578 -94.071637910572477 83.067466606273697 -42.951401057886564 -94.071637910572477 83.067466606273697 -16.077542088660326 2.3786987017456728e-06 9.4232740365835302e-07 -2.6511739954086078e-06 0.0000000000000000 1.0632665635089818e-12 -1.6420245171834606e-11 5.7701376733913481e-10 1.0615044027729878e-07 -5.3157689612241277e-15 2.8228663178690748e-15 1.1252459117678707e-14 0.0000000000000000 -42.930125987095458 -94.071309017270835 83.274511392489799 283.94561953274422 0.0000000000000000 0.0000000000000000 0.0000000000000000 0.0000000000000000 3.0047716667372821 3.0095485297209317 1.0047768644232553 1.0023685775632498 45.704373080700506 45.702705381634104 1.0023855750274357 
-44.969032159273674 -98.975218285631883 67.787998503147094 -44.969032159273659 -98.975218285631868 67.787998503147051 -18.912400464891100 1.1664263985940619e-06 1.3289445956248680e-06 -3.6613817315018112e-06 0.0000000000000000 8.6389922993035394e-13 9.1846669159068028e-14 6.0949190139325527e-10 1.1057722766429986e-07 -9.3884434278300023e-15 -4.3639505593598356e-15 -8.0610961204850602e-15 0.0000000000000000 -44.946335306532468 -98.969717126470769 68.015559797458934 339.42980011114588 0.0000000000000000 0.0000000000000000 0.0000000000000000 0.0000000000000000 3.0047355468258004 3.0094768980341802 1.0047413533484013 1.0023584529184972 50.861722150433472 50.905751977666725 1.0023678570180286 
-35.689818691551693 -100.83756653311282 75.142621305597160 -35.689818691551672 -100.83756653311278 75.142621305597189 -17.862491758301250 1.1470064976051455e-06 1.0585711733593705e-06 -2.2149479274491435e-06 0.0000000000000000 -1.1130900771577631e-12 -7.7306215856875901e-12 5.9568767640965496e-10 1.0993974495097276e-07 9.4104192565825123e-16 -4.2347225674508637e-15 3.4589159213798993e-15 0.0000000000000000 -35.672109309640206 -100.83293553867907 75.360366609178811 338.44965823895870 0.0000000000000000 0.0000000000000000 0.0000000000000000 0.0000000000000000 3.0043974457348792 3.0087995956860940 1.0044021513938828 1.0022900615725272 48.088758715396573 48.085702119360263 1.0021986529999116 
-49.000138943448249 -112.00162403598142 65.151122677233019 -49.000138943448249 -112.00162403598142 65.151122677233033 -17.747505755812451 2.1013268480723693e-06 1.5055160551576129e-06 -2.4692645266253992e-06 -16.877013196421526 9.2454863209745517e-13 1.5383874729657521e-13 6.2143951096160766e-10 1.0924368475090212e-07 -5.1675995610126851e-15 4.8350121905456954e-15 4.2588108291186106e-15 1.1058446797868219e-07 -48.975793059600008 -111.99207679200002 65.383142959360015 326.57209562220959 0.0000000000000000 0.0000000000000000 0.0000000000000000 0.0000000000000000 3.0048446671800191 3.0096946178066517 1.0048499522067407 1.0023971880894786 49.218400710494834 49.245221141305628 1.0024220255379266 
-25.254168823075556 -110.49094935935734 67.241170374695756 -25.254168823075560 -110.49094935935730 67.241170374695727 -19.323277615669770 4.0404229801241309e-07 7.6523052024833699e-07 -2.4642527861492670e-06 0.0000000000000000 5.5542896670868203e-13 1.4619902510837335e-13 6.1197585887740037e-10 1.1142947251309273e-07 -1.3944216661435195e-15 -3.7229175770193315e-15 9.4259194964115905e-16 0.0000000000000000 -25.239536857883341 -110.48187134057846 67.469656361758609 349.35568362690350 0.0000000000000000 0.0000000000000000 0.0000000000000000 0.0000000000000000 3.0046581330840532 3.0093214499050744 1.0046633184913754 1.0023465678258991 51.753075201401600 51.734719899592790 1.0023289388414804 
-44.098193360805602 -111.27792402267387 76.239131700524140 -44.098193360805610 -111.27792402267383 76.239131700524169 -16.114960221920789 1.1810136965922019e-06 -8.6726352181439186e-07 -1.6106913307054486e-06 0.0000000000000000 8.4429338520486387e-13 1.6182541417997243e-13 5.7121407603943918e-10 1.0747414654325674e-07 -3.8028969710678969e-15 -2.1460516123960707e-15 5.1033402083038542e-15 0.0000000000000000 -44.075852747763513 -111.26860156453857 76.452402029906395 268.59635586333832 0.0000000000000000 0.0000000000000000 0.0000000000000000 0.0000000000000000 3.0049875904734908 3.0099815958297698 1.0049940077930370 1.0023589124054881 46.925270639638484 46.927125811075548 1.0024938939970778 
-58.288628541906498 -106.62780820467127 105.17346928829676 -58.288628541906512 -106.62780820467120 105.17346928829679 -11.288643988966301 4.2480670705691518e-07 2.7699987708771510e-06 -5.4281670634395239e-07 0.0000000000000000 3.7547161200728984e-11 -3.7711366328710930e-11 4.5854870500075631e-10 1.0803045217979940e-07 -3.9922961200333567e-15 -5.1414340776572319e-15 -5.4419026802132069e-15 0.0000000000000000 -58.254647241440821 -106.62760994408018 105.33920711112118 241.62621693813244 0.0000000000000000 0.0000000000000000 0.0000000000000000 0.0000000000000000 3.0059306972523676 3.0118706774171211 1.0059399845397119 1.0029270188409671 42.089931036286387 42.090173808466126 1.0029655930276926 
-64.406743814370046 -90.085430314302727 96.504663667021788 -64.406743814370031 -90.085430314302755 96.504663667021774 -14.585076198822049 -1.1190964180854296e-06 1.0381408595822104e-06 1.3647418388051804e-06 0.0000000000000000 3.3922143400365291e-11 -3.9387868359499049e-11 5.2126832711379355e-10 1.0328579088940166e-07 1.3571621206907619e-15 -1.9994235949502014e-15 -9.6321459432575878e-15 0.0000000000000000 -64.370648572599308 -90.090304358695661 96.688480747766732 239.98138923263960 0.0000000000000000 0.0000000000000000 0.0000000000000000 0.0000000000000000 3.0051344720548112 3.0102747908785599 1.0051403200946363 1.0024611559330967 44.369654881205520 44.370650546112749 1.0025668316069802 
-75.956040309789771 -99.702263844955823 101.15148145449622 -75.956040309789799 -99.702263844955766 101.15148145449622 -13.834857334236688 -2.0592131734072110e-06 2.2812849571029048e-06 -5.0747273508627094e-07 0.0000000000000000 4.3197697370190633e-11 -3.0062433407596982e-11 4.8767799736407710e-10 1.0634887688405164e-07 8.8836132957606459e-15 -7.2362504385892350e-15 -3.9954641661220407e-15 0.0000000000000000 -75.913673002404863 -99.702254402691466 101.32606574872912 288.13617662859207 0.0000000000000000 0.0000000000000000 0.0000000000000000 0.0000000000000000 3.0053632567307873 3.0107334476517313 1.0053701932742565 1.0026031687698973 44.128217550786097 44.126881912216128 1.0026815168474608 
-55.196534838161782 -93.582492384812980 103.15554931721822 -55.196534838161810 -93.582492384812980 103.15554931721819 -13.878526992794813 -1.5873763442597276e-07 1.2278187764767066e-06 4.4131909918331561e-07 0.0000000000000000 3.0548573349571636e-11 -4.3123217499349670e-11 4.7612658463008325e-10 1.0432719566617364e-07 3.8112164695527083e-15 -2.1660752766213201e-15 4.7665117036759365e-16 0.0000000000000000 -55.164710769962618 -93.586508083202432 103.32606452766413 222.68531933077850 0.0000000000000000 0.0000000000000000 0.0000000000000000 0.0000000000000000 3.0052486297726357 3.0105030463649900 1.0052544180833667 1.0026077427403288 44.717192296101835 44.716823389834268 1.0026237738167856 
-45.785808799120410 -175.92520760083758 155.57003422621119 -45.785808799120403 -175.92520760083761 155.57003422621119 -13.586543301852766 -8.8474832167042354e-07 -1.2749861125346077e-06 2.3378539115774985e-06 0.0000000000000000 8.7142792981609328e-13 4.8223577908679260e-13 2.1191637333828339e-10 8.4265054976781710e-08 4.1756485942673109e-15 5.4348075125449490e-15 -4.4424474915969857e-15 0.0000000000000000 -45.762777822239421 -175.89580528354742 155.64915507299250 248.91339099022119 0.0000000000000000 0.0000000000000000 0.0000000000000000 0.0000000000000000 3.0051953655032131 3.0103968811469932 1.0052015176604845 1.0025281597367786 42.719299868121901 42.719445199358212 1.0025973833488309 
-51.460847953709816 -185.59521730006117 168.09577424586806 -51.460847953709838 -185.59521730006119 168.09577424586809 -14.318313102876616 2.6115274701766675e-08 -3.8269215455031753e-08 1.2437880278693498e-08 -14.548595174866755 9.6101598900943941e-13 5.5057694514637500e-13 1.5518791807167531e-10 8.4983656629542188e-08 -4.0409291005579065e-16 6.4067888170876610e-16 5.5671316572630724e-16 8.5814295951527353e-08 -51.435495451599998 -185.56281141599996 168.15371392000000 294.81703600272857 0.0000000000000000 0.0000000000000000 0.0000000000000000 0.0000000000000000 3.0047835962149185 3.0095724413287157 1.0047888467751982 1.0024099550086853 43.280246858972241 43.279866577471971 1.0023915655049651 
-42.694974349881868 -171.20965807578148 166.20863118462250 -42.694974349881853 -171.20965807578156 166.20863118462242 -14.181146349469570 1.1810543037253966e-07 -1.2838619569771363e-07 7.4187643891756032e-07 0.0000000000000000 1.9297116053620658e-12 -5.5210341618242511e-12 1.5955418197779669e-10 8.4763157049014690e-08 -4.5930033941041032e-16 -1.6823095553041494e-16 -2.2467011514175463e-18 0.0000000000000000 -42.672974891599750 -171.18173466392949 166.26923354793541 271.88244999766295 0.0000000000000000 0.0000000000000000 0.0000000000000000 0.0000000000000000 3.0047944298219011 3.0095942715545672 1.0047998435193504 1.0024195719000073 42.924861725285965 42.924654672431863 1.0023970493585805 
-59.411339782684479 -178.04744489482511 157.67505482993275 -59.411339782684522 -178.04744489482516 157.67505482993280 -14.533106921144707 -6.5034173842684822e-07 -1.8971694623230839e-07 4.2069529364818464e-08 0.0000000000000000 1.0829080687724257e-12 5.0103324267247729e-13 2.0238172249165132e-10 8.6340556981786489e-08 2.7487820213177118e-15 7.2531184145686123e-16 1.0288627403414403e-15 0.0000000000000000 -59.382734921100123 -178.01738339707751 157.75061606229067 243.94852352315442 0.0000000000000000 0.0000000000000000 0.0000000000000000 0.0000000000000000 3.0047555281161680 3.0095161313629810 1.0047606047570588 1.0024151178317011 43.455496792806770 43.455325205618614 1.0023774784911732 
-30.677830386516113 -102.72920625099178 95.143709142403068 -30.677830386516117 -102.72920625099182 95.143709142403111 -12.755845369264266 8.0178954456816087e-07 1.4730970516799656e-06 -3.8934898018175611e-06 0.0000000000000000 4.1852432832740925e-12 -1.5008514213980361e-11 5.1106818842111805e-10 1.0207253044030942e-07 -4.6574083021793596e-15 4.0070611114545489e-15 8.9694997243648281e-16 0.0000000000000000 -30.660097366607719 -102.72526557899965 95.328291536857705 204.58703120518373 0.0000000000000000 0.0000000000000000 0.0000000000000000 0.0000000000000000 3.0052832498840298 3.0105726345910910 1.0052893861680030 1.0026048190464605 42.127915540905867 42.127938411835665 1.0026412008161454 
-18.816219901162370 -110.91516091291044 93.169395593200520 -18.816219901162363 -110.91516091291037 93.169395593200520 -14.477372575099631 1.2807406012836113e-06 2.6477581991732820e-07 -3.2438352705531595e-06 0.0000000000000000 4.5573267382081895e-13 1.5664206043375373e-13 4.9453463546456068e-10 1.0345234639373648e-07 1.5205872884824864e-15 -7.1432138102280864e-16 1.3605779183389042e-15 0.0000000000000000 -18.804221549666405 -110.90595113131390 93.354036648627854 267.24800799435923 0.0000000000000000 0.0000000000000000 0.0000000000000000 0.0000000000000000 3.0048467795528393 3.0096987439699965 1.0048519659458490 1.0024427881358118 44.277570965440489 44.277780341167251 1.0024230569540691 
-33.833414665889478 -104.71626854394877 84.804622927627605 -33.833414665889457 -104.71626854394877 84.804622927627605 -15.302291993502882 1.1160342588054832e-06 7.1361807593732908e-08 -2.8273145242575812e-06 0.0000000000000000 -1.2722298114109830e-12 -1.0617994197679033e-11 5.6677800046435589e-10 1.0515210038655571e-07 -4.3729599723892198e-15 7.7083209475399063e-16 1.4276096191930442e-15 0.0000000000000000 -33.815892125380543 -104.71065599625929 85.007910193808286 270.69679205096202 0.0000000000000000 0.0000000000000000 0.0000000000000000 0.0000000000000000 3.0045830994683382 3.0091713927854569 1.0045882949693441 1.0023641901992861 44.349536158440422 44.349489290684822 1.0022915020982948 
-18.933229939833033 -100.38562038258935 95.216885273870830 -18.933229939833037 -100.38562038258937 95.216885273870787 -13.793650817431846 3.9254001719972010e-07 7.2094718977773549e-08 -9.9012443955204090e-07 0.0000000000000000 4.5620625332976061e-13 9.2911789373317788e-14 4.8526926921255154e-10 1.0065040974084853e-07 1.5276043563857103e-15 2.3467892306794287e-15 2.0320358059783403e-15 0.0000000000000000 -18.921183722278450 -100.37968114352928 95.398064000337470 185.31956687594098 0.0000000000000000 0.0000000000000000 0.0000000000000000 0.0000000000000000 3.0049182987866270 3.0098416488467001 1.0049233514533387 1.0024461030062553 43.088946790177573 43.089100849037351 1.0024586692098070 
-31.140749752937360 -117.98951667351908 173.16525894352642 -31.140749752937374 -117.98951667351911 173.16525894352648 -15.796761965230891 1.2672058403645858e-06 1.2030045384159935e-06 9.6900292320479973e-07 0.0000000000000000 6.6849821249283294e-12 -5.7282696520635309e-12 1.1876765014828292e-10 8.9678801004032325e-08 -4.0860888160355917e-15 -5.0349288003185966e-15 -1.1553681278988794e-15 0.0000000000000000 -31.124431206993112 -117.97934695114738 173.21200361760444 258.17126679857051 0.0000000000000000 0.0000000000000000 0.0000000000000000 0.0000000000000000 3.0048082571432859 3.0096215989875934 1.0048133432183493 1.0024237416797692 45.864174127766574 45.864437481195417 1.0024037848592118 
-30.658918696109431 -133.14987656145479 164.74608343568161 -30.658918696109453 -133.14987656145473 164.74608343568161 -14.485536524311032 1.2788208617224224e-06 -1.1878531109948588e-08 3.3260606317602903e-07 0.0000000000000000 8.4269347849739151e-12 -3.5809502676018547e-12 1.5743991933325738e-10 8.6788255215172661e-08 -4.7361491347901721e-15 -5.3602393029689585e-16 1.0566498231355201e-15 0.0000000000000000 -30.642131568542830 -133.13454878399213 164.80820313575899 262.24283076768535 0.0000000000000000 0.0000000000000000 0.0000000000000000 0.0000000000000000 3.0049477626111538 3.0099014185453354 1.0049536579572125 1.0025025133193703 44.162360724682209 44.162698746507665 1.0024737644730015 
-42.699399865105242 -120.11473659493875 163.64413966220133 -42.699399865105228 -120.11473659493871 163.64413966220130 -13.803965955387225 2.0437994631879338e-06 1.3957668570179999e-06 1.1006419588794970e-06 0.0000000000000000 1.6731171196657102e-11 -1.9334888755521911e-11 1.4503640397307436e-10 8.5996912892598381e-08 -9.0291258256992345e-15 -6.7525043493638334e-15 -4.4233189103346707e-15 0.0000000000000000 -42.676694985445003 -120.10595080876966 163.70375490782192 268.28772502602959 0.0000000000000000 0.0000000000000000 0.0000000000000000 0.0000000000000000 3.0055187594558976 3.0110453213785040 1.0055265650633263 1.0026600670691836 44.144851129733304 44.144203339142528 1.0027594762622902 
-23.761344614239292 -114.24421126353796 161.74409106795400 -23.761344614239302 -114.24421126353799 161.74409106795400 -15.511898193521992 6.3218253344050395e-07 4.5538909554634547e-07 1.0134880235137740e-06 0.0000000000000000 5.3169621483384333e-13 1.6439280492441810e-13 1.8396240086815396e-10 8.9905231360757448e-08 -2.6875496273797107e-15 -2.4566488681220038e-15 8.0957240858724234e-16 0.0000000000000000 -23.747323328369049 -114.23396745764113 161.81277151251504 321.01516800445251 0.0000000000000000 0.0000000000000000 0.0000000000000000 0.0000000000000000 3.0047412211929450 3.0094875540577699 1.0047463343402570 1.0024155111689426 45.373579926389759 45.370200885913626 1.0023703636849035 
-6.4703959534846112 -104.99492368210261 109.17392225726317 -6.4703959534846112 -104.99492368210259 109.17392225726320 -11.367096527036431 1.9156420876449933e-08 8.9805693787232688e-08 -1.7324851779933618e-06 -10.653945829021126 2.6377944967181927e-13 1.2835912888142784e-13 4.2204700845260840e-10 9.0767744655310289e-08 -1.9226996736456150e-16 4.2794045601777728e-17 7.0946934618567185e-15 8.8118300437178425e-08 -6.4634479885999987 -104.98755276399999 109.33149947120000 327.67017865987640 0.0000000000000000 0.0000000000000000 0.0000000000000000 0.0000000000000000 3.0048331933866730 3.0096719288361431 1.0048387372841456 1.0024463880339496 37.758853265899127 37.758875661659218 1.0024164538489992 
-11.815973148964027 -97.121806017073482 101.26673497442738 -11.815973148964025 -97.121806017073482 101.26673497442739 -13.201820550595457 -2.5900867523723259e-07 4.5481914461264466e-08 -1.9687282409660138e-06 -12.853544674206692 3.4728643572012885e-13 7.7167439105352287e-14 4.5785747415649780e-10 9.7509000905559936e-08 6.9880346351493582e-16 -1.1764789203761925e-15 4.2536691530923084e-15 9.6930342335570318e-08 -11.806838433999999 -97.116880539599975 101.43768333439998 212.90238721710071 0.0000000000000000 0.0000000000000000 0.0000000000000000 0.0000000000000000 3.0047815999188083 3.0095684008424355 1.0047868026036224 1.0024151697295625 41.117736226551990 41.117809917125555 1.0023905462731835 
-15.860393831883709 -110.36914297659851 102.92928971813203 -15.860393831883703 -110.36914297659855 102.92928971813200 -12.338698918796274 9.1693807718340922e-07 5.9790294453964055e-08 -3.6640298652384116e-06 0.0000000000000000 4.0853778693339393e-13 1.4321530072969321e-13 4.5033005102723683e-10 9.5055712897857176e-08 -6.0143889321800018e-15 3.8372839464858610e-16 1.1108690239180623e-14 0.0000000000000000 -15.849604639409371 -110.36010279166017 103.09742667861765 236.22178992679409 0.0000000000000000 0.0000000000000000 0.0000000000000000 0.0000000000000000 3.0048043472927914 3.0096141877501044 1.0048098422389744 1.0024522884427374 40.027116399272806 40.027040678895816 1.0024020384638244 
-23.763600863239176 -99.539889009553804 102.11232848574481 -23.763600863239166 -99.539889009553860 102.11232848574485 -12.538492648764375 9.8634328632608872e-07 1.7523967056946250e-06 -2.4374781184200013e-06 0.0000000000000000 5.3284460177493997e-13 9.1936874779818822e-14 4.5403203419169813e-10 9.6670696629717541e-08 -4.6714607897173640e-16 -8.8738955138358016e-15 7.9620275438567829e-15 0.0000000000000000 -23.749578654390465 -99.534212460059550 102.28184693721489 211.57004919854941 0.0000000000000000 0.0000000000000000 0.0000000000000000 0.0000000000000000 3.0050067893753987 3.0100197257123624 1.0050129382075308 1.0025150306882105 40.901724801677567 40.901676463053235 1.0025033305276867 
-54.119751597497327 -108.37271517310529 113.69533728346940 -54.119751597497299 -108.37271517310528 113.69533728346941 -9.1720460744100336 1.2380456537019135e-06 3.9732904737042132e-06 -2.6734546100414091e-06 0.0000000000000000 4.2779360521709513e-11 -3.3486857102637728e-11 4.0584810393140495e-10 1.1680641070699041e-07 2.0058719249876828e-14 1.6463753955759336e-14 -2.9556420957824571e-14 0.0000000000000000 -54.087034329299712 -108.37170302860723 113.84396407125838 191.01171882188567 0.0000000000000000 0.0000000000000000 0.0000000000000000 0.0000000000000000 3.0066049649822641 3.0132213623384980 1.0066164033099092 1.0031854228577530 39.623756751899684 39.623746344753641 1.0033027490806807 
-41.717425981033408 -107.75052214268659 110.82203866691142 -41.717425981033408 -107.75052214268666 110.82203866691137 -10.320449414457331 -6.8217301101135463e-07 2.5462329680662905e-06 1.7886727338284216e-07 0.0000000000000000 3.0397939259189283e-11 -3.5680497697157193e-11 4.2277311897063377e-10 9.7032175238030450e-08 1.4568009884577403e-14 -1.6910804542903164e-14 -8.3435787947589517e-15 0.0000000000000000 -41.690910404717421 -107.74885629568415 110.97670241767709 270.34727434602189 0.0000000000000000 0.0000000000000000 0.0000000000000000 0.0000000000000000 3.0059902808903431 3.0119889559700668 1.0059986782137080 1.0029714445367701 40.832103114947564 40.832115500577423 1.0029948563803226 