# For a description of the Tecplot format see the Tecplot User's guide.
#
Variables=x,y,z,s_u,s_v,s_w,s_p,mono_f_vel_u,mono_f_vel_v,mono_f_vel_w,const,u_nu,v_nu,w_nu,p_nu,x_nu,y_nu,z_nu,const,u_ref,v_ref,w_ref,vol_ref,x_ref,y_ref,z_ref,const,I1,I2,I3,J,p1,p2,p3
Zone f=fepoint, n=356, e=1130, et=brick, c=black
-66.7953 -97.6854 85.8935 -66.795303731367980 -97.685418635497641 85.893450062095312 -483.78253859699402 -0.00011290617950270280 0.00011920690321891551 0.00077635948211588499 1.7805266750891790e-18 1.6961524101910541e-08 9.1071428176547897e-10 3.0163684806794322e-05 0.0026961402302290243 8.3344600596185290e-10 -1.0844803971757563e-09 -2.6001105734645450e-09 -2.3668603897498762e-19 -65.754724465942431 -97.517594547729473 92.373562431030237 2074.8615187338191 0.0000000000000000 0.0000000000000000 0.0000000000000000 0.0000000000000000 3.1694881160599366 3.3454374133806555 1.1760201566927762 1.0844482845501633 1513.8556600460174 1453.9446529001791 1.0844441886305589 
-76.924015546891752 -131.06920430659216 71.609616355349516 -76.924015546891738 -131.06920430659216 71.609616355349530 -300.59145112514676 -0.00034252593002433537 -0.00013133835227422641 0.00014032953116608301 10.350936940008525 1.9183738403372171e-08 2.7621708253988686e-09 3.3863085270979809e-05 0.0021988235385994345 3.2095668985962240e-09 1.2112087373583939e-09 -1.7113483028046309e-09 -0.0015186089184548199 -75.747104543999981 -130.56019973999997 78.884476808000016 2128.8259272129790 0.0000000000000000 0.0000000000000000 0.0000000000000000 0.0000000000000000 3.1694462397498038 3.3453942832460730 1.1760192131599785 1.0844482845501628 1197.0302528908144 1199.6300410779584 1.0844425648529241 
-64.431031067061951 -122.21311396768233 63.515410313405233 -64.431031067061951 -122.21311396768235 63.515410313405241 -114.69050851319520 0.00028419117646453633 -2.9030042375465734e-06 3.5626333365198992e-05 231.67455871276977 1.6442807920791225e-08 2.2710190394903407e-09 3.5959420904063677e-05 0.0011382996338981642 -2.6930475341242901e-09 2.1250984930891203e-10 -5.3353874559520607e-10 -0.0023517348894346742 -63.422274742800013 -121.79461816400000 71.240629883439979 1237.7701333319521 0.0000000000000000 0.0000000000000000 0.0000000000000000 0.0000000000000000 3.1699093780965053 3.3462055042873975 1.1763638574450381 1.0844482845501624 756.34162711170234 769.99683461701090 1.0846035028591043 
-57.061886286347473 -132.60423973339383 69.234399374122845 -57.061886286347473 -132.60423973339383 69.234399374122845 -201.37984615407697 0.00037552314811750752 -8.7881647873962006e-05 -0.00018448365693241197 -315.51604654862683 1.4826037203485853e-08 2.8472947333213483e-09 3.4478247773250814e-05 0.0014404090328433135 -3.1620953838491057e-09 1.0347918991471680e-09 2.1392069046116762e-09 0.0056853794893476526 -56.152318124399997 -132.07954718800002 76.641416164000006 2090.5778096190215 0.0000000000000000 0.0000000000000000 0.0000000000000000 0.0000000000000000 3.1683454798363466 3.3431929788638017 1.1749199217556041 1.0844482845501628 1144.1991758610097 1152.8355816115577 1.0839361111903811 
-124.71808142734982 -110.68811426382422 82.540771006756415 -124.71808142734980 -110.68811426382422 82.540771006756401 -965.50700000450774 -3.6017288695783490e-05 4.5271625402557576e-05 -0.00027569359694773861 -1116.5233169136679 2.9669664752818286e-08 1.6318369988610471e-09 3.1032002278053021e-05 0.0058677777421218208 -1.2157083013110935e-11 -6.5873254409402239e-10 1.6003719721316471e-09 0.0066985623911855943 -122.89786571200003 -110.38740333199999 89.207425400000020 2092.2379289329847 0.0000000000000000 0.0000000000000000 0.0000000000000000 0.0000000000000000 3.1697975506597840 3.3460406712205577 1.1763127035994816 1.0844482845501642 2743.6778409934600 2737.6572149214003 1.0845800392671827 
-124.58828423440518 -128.99188959087093 87.067131888388701 -124.58828423440515 -128.99188959087090 87.067131888388730 -813.99872084407320 -4.1804419586360368e-05 -3.6541093927679383e-05 -0.00045102940624114173 -1148.5545201078601 2.9641187754281268e-08 2.6469685332486392e-09 2.9859710453550299e-05 0.0050264208868445416 4.9304981577451296e-11 1.1057000870051596e-10 1.6992104950062405e-09 0.0049503113573300828 -122.76981557999994 -128.50411506799998 93.481940963999989 2295.0048277193882 0.0000000000000000 0.0000000000000000 0.0000000000000000 0.0000000000000000 3.1698069177235104 3.3460134239347781 1.1762744513254226 1.0844482845501637 2478.0022863747481 2482.6415004239825 1.0845616608805335 
-88.668942057186186 -119.94852236984168 102.45297257361901 -88.668942057186129 -119.94852236984164 102.45297257361895 -392.16805031536694 -9.7190335933826783e-06 0.00042106016639047509 -0.00038034563638037107 -1.7406626756247549e-19 2.1760563823081111e-08 2.1454208409821263e-09 2.5874898859967743e-05 0.0025705796678422107 7.4062093833598242e-11 -2.9512599180116411e-09 1.5009011958561107e-09 1.2913278901962125e-20 -87.333945182495114 -119.55317056945796 108.01171823852533 1853.2119812635015 0.0000000000000000 0.0000000000000000 0.0000000000000000 0.0000000000000000 3.1689699839275263 3.3444466968590958 1.1755510507985507 1.0844482845501635 1527.1051944743738 1585.0012283018825 1.0842290917866224 
-123.70337113936195 -119.33840781068169 101.42152220650959 -123.70337113936195 -119.33840781068169 101.42152220650961 -361.97865504883339 -3.9167213632023631e-05 0.00019254771673949346 -0.00044818214228046257 -246.49046916666811 2.9447043276009666e-08 2.1115852399944401e-09 2.6142036386289650e-05 0.0024996421311413112 -3.0054153880960105e-11 -1.9669386522945558e-09 1.5020802425627816e-09 0.0016715410476759178 -121.89681335200000 -118.94929134799999 107.03765745040002 1571.7251237143605 0.0000000000000000 0.0000000000000000 0.0000000000000000 0.0000000000000000 3.1694296994083051 3.3452486508043195 1.1758857707968675 1.0844482845501631 1309.0082124234925 1254.4680902256807 1.0843822463207689 
-44.921665405549710 -164.47472983852984 119.01248970330130 -44.921665405549703 -164.47472983852990 119.01248970330130 -117.42773912173327 0.00011036930624255383 -2.4271124874272935e-06 1.3814444700892003e-05 0.0000000000000000 1.2162498258527776e-08 4.6148357357722603e-09 2.1586114314686711e-05 -0.00044335734027140889 4.0298462930534408e-09 3.0370235705186111e-09 -3.4940414450752244e-09 0.0000000000000000 -44.175503749389662 -163.62432261291502 123.64986896362305 1288.7765825848380 0.0000000000000000 0.0000000000000000 0.0000000000000000 0.0000000000000000 3.1722597064852405 3.3515814433756628 1.1794062246254695 1.0865449615105496 950.81746934688294 1559.8310612430212 1.0860074431420217 
-15.832856201913559 -144.51114896794081 132.15696326583139 -15.832856201913559 -144.51114896794076 132.15696326583137 -113.42819565342421 1.3356295906505522e-05 -8.0390966889234294e-05 -1.4461092684017234e-05 46.024030032790172 5.7804718234244498e-09 3.5076744842044150e-09 1.8181799148919708e-05 -1.8705740693821264e-05 -1.2880736841665904e-10 -1.4576865055741394e-09 -5.5413061698955563e-09 0.0043490514716260208 -15.478227839600008 -143.86476845600004 136.06298808800005 1207.7015194609139 0.0000000000000000 0.0000000000000000 0.0000000000000000 0.0000000000000000 3.1687335334983855 3.3438037302728030 1.1751364675107765 1.0849085547340238 1056.5036628278690 1025.0824963626858 1.0840369327559025 
-44.921665405549710 -164.47472983852984 135.57200683298356 -44.921665405549696 -164.47472983852995 135.57200683298367 -205.67777550663220 6.6923022130287995e-05 -8.2047373784522752e-05 5.1137222676887033e-06 0.0000000000000000 1.2162498258527778e-08 4.6148357357722611e-09 1.7297329758747537e-05 0.0014804559112411113 -2.3904176727733358e-10 -2.7370647994455332e-10 7.1455556743307935e-10 0.0000000000000000 -44.175503749389669 -163.62432261291511 139.28801968872074 2260.0113226803110 0.0000000000000000 0.0000000000000000 0.0000000000000000 0.0000000000000000 3.1686844998268282 3.3437430909673522 1.1751264947533402 1.0851470778127654 1269.4564577071894 1090.1900454115819 1.0840360872451600 
-6.1055731645644995 -162.28677575354070 126.18721621771510 -6.1055731645645004 -162.28677575354067 126.18721621771510 -500.60772648825849 0.00018870630036248385 -0.00017419012307576864 0.00012387395284079833 -654.19367476691696 3.6463252139906643e-09 4.4934974630095326e-09 1.9727916633627274e-05 0.0029014694039395895 -2.0010937417875384e-09 2.9928224690455747e-09 -1.5032475178111679e-09 0.0013478037551778604 -5.8818733370400009 -161.45872929999999 130.42539591680000 1840.5999298976626 0.0000000000000000 0.0000000000000000 0.0000000000000000 0.0000000000000000 3.1689796433956001 3.3443110336883795 1.1753993122450088 1.0844482845501637 1828.5871346796778 1790.5783364736856 1.0841580694182034 
-10.057561316529437 -107.37582912132605 181.84785830865874 -10.057561316529435 -107.37582912132606 181.84785830865874 -254.75558245467886 -2.1867171819018061e-05 4.9876722355891874e-05 4.0135223330286611e-05 -284.46232717007643 4.5133830284260767e-09 1.4481403853849883e-09 5.3122485841328171e-06 0.0017635584093010461 2.3178896473993542e-10 -6.8440662110287873e-10 -7.6975689528652113e-11 0.0021787085996808051 -9.7806680107999995 -107.10896956400003 182.98909712000000 1021.2952016557671 0.0000000000000000 0.0000000000000000 0.0000000000000000 0.0000000000000000 3.1695939769061146 3.3456130516847482 1.1760882752707840 1.0844482845501637 1354.9504991387660 1348.8392774860124 1.0844760635859112 
-17.948876570511491 -108.91987408510695 192.86570769210695 -17.948876570511491 -108.91987408510695 192.86570769210695 -287.18381703335854 -7.8118444312604449e-05 0.00011277320727105293 -2.5329424999318273e-06 -343.12398784039709 6.2447203519333527e-09 1.5337838776829926e-09 2.4587123395036770e-06 0.0019543941538024264 3.8022360141056397e-10 -9.5916013322348333e-10 2.6877518957543854e-10 0.0023746642505604559 -17.565766725200003 -108.63723447200002 193.39391677600000 1230.2822850381203 0.0000000000000000 0.0000000000000000 0.0000000000000000 0.0000000000000000 3.1695807888839491 3.3455804457162843 1.1760687001082799 1.0844482845501642 1443.6019561469034 1437.8124923170362 1.0844668824654511 
-44.921665405549710 -119.94852236984168 168.69104109234814 -44.921665405549781 -119.94852236984177 168.69104109234826 -344.39745731291714 -4.4231206250467670e-05 8.0117487832968701e-05 0.00010353954781501723 0.0000000000000000 1.2162498258527775e-08 2.1454208409821263e-09 8.7197606664091171e-06 0.0018643734671251182 -1.1504719587494286e-11 -5.2351382043922158e-10 -1.5853314301391811e-09 0.0000000000000000 -44.175503749389591 -119.55317056945772 170.56432113891603 1872.3464537223574 0.0000000000000000 0.0000000000000000 0.0000000000000000 0.0000000000000000 3.1693594006743222 3.3451534922569919 1.1758640060181167 1.0844482845501631 1543.5171342246726 1564.4037691908638 1.0843734076613747 
-9.6026095762053298 -124.84247620715327 188.06956324441134 -9.6026095762053298 -124.84247620715327 188.06956324441131 -267.01619581700561 1.9630325971593295e-05 -0.00017920078012632253 -3.9032535079797211e-05 -259.69357483565506 4.4135683996415764e-09 2.4168375079014481e-09 3.7008760056522765e-06 0.0017286905579120704 -8.8965514222779487e-11 9.6280249401059528e-10 2.1721881014531007e-10 0.0015445083331231699 -9.3318398883999993 -124.39710846400000 188.86462832000004 1016.3527334425750 0.0000000000000000 0.0000000000000000 0.0000000000000000 0.0000000000000000 3.1695808240666019 3.3455778418778257 1.1760659809478968 1.0844482845501662 1429.1099540013367 1422.9268760753062 1.0844655199231419 
-44.921665405549710 -164.47472983852984 102.45297257361901 -44.921665405549703 -164.47472983852992 102.45297257361896 -311.50276152518637 1.7367313061383591e-05 -0.00047314225663393401 -0.00013814933399913896 1.3614528944202642e-17 1.2162498258527778e-08 4.6148357357722611e-09 2.5874898859967747e-05 0.0019741425861775808 -1.2964147966871091e-10 3.4764161416551632e-09 1.6881774728919851e-10 -1.8013488491318839e-18 -44.175503749389662 -163.62432261291499 108.01171823852535 1450.3671205666894 0.0000000000000000 0.0000000000000000 0.0000000000000000 0.0000000000000000 3.1735528881828068 3.3539280365702528 1.1804510052935731 1.0864353814429786 949.33085304103599 1334.2135001514105 1.0864737407757206 
-62.131459018362342 -161.77768949559731 79.147317696322176 -62.131459018362335 -161.77768949559731 79.147317696322190 -1017.3827564495039 -0.00033942375771411811 -0.00098615424323396936 -0.00021012660598206811 -316.93132378283633 1.5938289049666210e-08 4.4652460617911061e-09 3.1910879966901007e-05 0.0054225913896856224 1.9282439749270968e-09 7.6501200216905046e-09 2.6151613638497761e-09 0.0050635437243823755 -61.153654769600031 -160.95484587600001 86.002782780800032 1645.6757988676138 0.0000000000000000 0.0000000000000000 0.0000000000000000 0.0000000000000000 3.1552712233610958 3.3163305326833101 1.1611216600449414 1.0812625470450055 2650.6095552683091 2625.6624954056897 1.0775584499763535 
-44.979640504449655 -168.89721529106436 76.260291416213946 -44.979640504449655 -168.89721529106436 76.260291416213946 -1795.4704083490017 0.00034144328305362419 -0.0017556862791858754 -0.00031129073156964225 -813.30786620948982 1.2175214419984924e-08 4.8601073165954736e-09 3.2658597046264497e-05 0.0087888341655207904 -1.9429670972853949e-09 1.2542415615430936e-08 3.8142509996093185e-09 0.0094093489696324435 -44.232698507600013 -168.00161050399998 83.276389748800028 1737.4139093181343 0.0000000000000000 0.0000000000000000 0.0000000000000000 0.0000000000000000 3.1707094377565781 3.3478650893188071 1.1772248849104219 1.0844482845501626 3923.9906738330251 3865.0654129466184 1.0850036719284017 
-44.921665405549710 -186.73783357287391 102.45297257361902 -44.921665405549689 -186.73783357287380 102.45297257361892 -1856.2803803382171 0.00010646310611299998 -0.00074091533310687084 -0.00087109666834451322 -3.1591957987540979e-20 1.2162498258527780e-08 5.8495287502680071e-09 2.5874898859967736e-05 0.0093550296989163007 -1.3556131636882293e-10 5.8724064635334070e-09 1.3020410576739873e-09 7.0969392706995535e-22 -44.175503749389676 -185.65989863464350 108.01171823852533 1616.4576808433910 0.0000000000000000 0.0000000000000000 0.0000000000000000 0.0000000000000000 3.1657601368278852 3.3376690140116549 1.1719730307832796 1.0836943076044352 4290.1338304435476 4268.6915761016044 1.0825752688663450 
-88.668942057186186 -142.21162610418577 135.57200683298356 -88.668942057186129 -142.21162610418571 135.57200683298367 -314.27353716636230 2.1570849301877763e-05 -7.6655280178525742e-05 3.1094014723155025e-05 0.0000000000000000 2.1760563823081114e-08 3.3801424992319089e-09 1.7297329758747537e-05 0.0012469862017529469 1.9160135717337632e-10 1.7181447013753129e-11 -3.6874394989857905e-10 0.0000000000000000 -87.333945182495100 -141.58874659118649 139.28801968872074 1877.7986991733408 0.0000000000000000 0.0000000000000000 0.0000000000000000 0.0000000000000000 3.1709956715401533 3.3485140380716167 1.1775851862654465 1.0850568495529433 1524.0358168700382 1532.0187223532705 1.0851706510326240 
-66.795303731367952 -164.47472983852984 135.57200683298356 -66.795303731367923 -164.47472983852998 135.57200683298370 -257.06660119388351 -0.00010117431999899688 9.2606519866224465e-05 0.00011057952484601685 7.0029067353554050e-19 1.6961524101910541e-08 4.6148357357722603e-09 1.7297329758747537e-05 -0.00037031882353544249 -2.4241270028509449e-10 -5.7794591569533966e-10 -6.7767639543436744e-09 -9.6091602693637291e-20 -65.754724465942374 -163.62432261291517 139.28801968872077 2018.1238718776010 0.0000000000000000 0.0000000000000000 0.0000000000000000 0.0000000000000000 3.1675807618122214 3.3414497281917890 1.1739353232206402 1.0853558337629217 1348.0808188114443 1375.7531323145236 1.0834882561491550 
-88.668942057186186 -164.47472983852984 119.01248970330130 -88.668942057186129 -164.47472983852995 119.01248970330123 -407.83658940298625 -0.00017875890319557754 -7.4959559383175710e-05 7.0170617382252527e-05 0.0000000000000000 2.1760563823081114e-08 4.6148357357722594e-09 2.1586114314686714e-05 0.00049953753087457183 6.7824097170044063e-09 3.6233070051745291e-09 1.5752911207658457e-09 0.0000000000000000 -87.333945182495114 -163.62432261291505 123.64986896362312 1549.0027140339625 0.0000000000000000 0.0000000000000000 0.0000000000000000 0.0000000000000000 3.1730383636153321 3.3526005346885630 1.1796331902240735 1.0854198358389755 1524.5302702292104 1649.2992252370989 1.0861020200078111 
-88.668942057186186 -142.21162610418577 119.01248970330130 -88.668942057186129 -142.21162610418571 119.01248970330120 -221.45021350581578 -0.00014026254979662754 -6.2907149499860475e-05 0.00021403534668060288 0.0000000000000000 2.1760563823081114e-08 3.3801424992319089e-09 2.1586114314686714e-05 -0.00093588838496521873 3.4224964624498055e-09 -3.7234616902902955e-09 -1.3694365887570918e-10 0.0000000000000000 -87.333945182495086 -141.58874659118649 123.64986896362313 1389.1126189879024 0.0000000000000000 0.0000000000000000 0.0000000000000000 0.0000000000000000 3.1692574438589141 3.3450395629811296 1.1758451991077741 1.0854749541552773 1201.8482751835688 1440.3041090425243 1.0843701379795905 
-45.957741088842440 -110.63386736748599 39.802525418324095 -45.957741088842447 -110.63386736748596 39.802525418324088 -1608.9504904872201 0.00033639428616593443 7.6999841229566393e-05 -0.00038956144757717711 -1701.5141272096891 1.2389809539437024e-08 1.6288413950960037e-09 4.2100871381123291e-05 0.0095981857791358916 -1.3022738926286113e-09 6.0445796911246400e-10 2.6539549389083094e-09 0.0099177003380387374 -45.197633928000002 -110.33371083599998 48.847122559999995 1069.0094105005942 0.0000000000000000 0.0000000000000000 0.0000000000000000 0.0000000000000000 3.1695513852579298 3.3455239679703248 1.1760417417136071 1.0844482845501633 3900.6326047023613 3901.2837660465088 1.0844545664347822 
-58.046453435844604 -99.012645808689484 37.027010149127875 -58.046453435844583 -99.012645808689456 37.027010149127854 -1572.4044640815414 8.6766319835158835e-05 9.7842958430992857e-05 -0.00030900407540452516 -1332.2558732224416 1.5042044304580667e-08 9.8432828554706475e-10 4.2819707982033606e-05 0.010156698355790155 5.4414772548389944e-12 -1.4535531826797754e-10 1.8217632224297690e-09 0.010725386157680903 -57.123633070400032 -98.831257531200038 46.226036100800002 1475.5774262919704 0.0000000000000000 0.0000000000000000 0.0000000000000000 0.0000000000000000 3.1695383518377729 3.3454972614156890 1.1760280753264436 1.0844482845501635 3636.9383878036410 3637.1392557823133 1.0844482773253785 
-61.103610608188411 -105.83813825204626 48.712028048583470 -61.103610608188426 -105.83813825204628 48.712028048583456 -999.15343570920629 0.00015384678241073501 0.00067211284958209282 -0.00075178400399021790 210.90199545667190 1.5712778439480598e-08 1.3628679296218136e-09 3.9793380354424819e-05 0.0064668382584348993 3.3918296748356650e-10 -3.7166960689330700e-09 6.7788791286123521e-09 0.010546448460961392 -60.139641125599979 -105.58699381199996 57.260903223199996 1724.6135661994952 0.0000000000000000 0.0000000000000000 0.0000000000000000 0.0000000000000000 3.1695116068535620 3.3454452771940528 1.1760029474544980 1.0844482845501637 2654.8095004300726 2652.7421012488403 1.0844367272786726 
-19.814238339870105 -88.186805141867524 49.176017690141364 -19.814238339870109 -88.186805141867552 49.176017690141364 -1298.0913721122304 -3.8348376228102383e-05 -0.00014997167297380525 -0.00072977081011502316 -1369.9844948191783 6.6539765641859824e-09 3.8392489187799588e-10 3.9673210693536027e-05 0.0079968517215578058 -3.2803425623808453e-10 8.3804270720123428e-11 2.1270110021138129e-09 0.0087375829547822019 -19.406020858399991 -88.116056368799974 57.699076624800000 1439.6451283969650 0.0000000000000000 0.0000000000000000 0.0000000000000000 0.0000000000000000 3.1695077437090928 3.3454343647657558 1.1759957898062099 1.0844482845501635 3344.5405841539155 3344.4691516730668 1.0844334242285858 
-59.721908773803037 -179.59324275559999 71.472703576326793 -59.721908773803051 -179.59324275559996 71.472703576326793 -3054.9377799878785 0.00014704350282301312 -0.00049287674200536411 -0.00055873605234420232 -3514.6891771642618 1.5409639370078665e-08 5.4533187965333232e-09 3.3898544598898184e-05 0.013730408269459237 -1.1805149337679571e-09 1.2485055574790297e-09 4.8322490890415640e-09 0.022576582871382037 -58.776536899199989 -178.58832514800000 78.755181813599989 1584.4809985467919 0.0000000000000000 0.0000000000000000 0.0000000000000000 0.0000000000000000 3.1728974230606828 3.3524734435100623 1.1796497605340064 1.0844482845501633 6590.9271139001348 6607.7623728981744 1.0861240389260618 
-75.622773063624606 -186.01334396978302 64.558589895053643 -75.622773063624621 -186.01334396978299 64.558589895053629 -2647.4157037289074 0.0010060096124033296 -0.00071522508692271707 2.4226903457830783e-05 -2776.8486813951167 1.8898248549392704e-08 5.8093690968874512e-09 3.5689245606818076e-05 0.012710756391453110 -6.3534875595659639e-09 3.9165488486249443e-09 -3.4016588363428686e-10 0.011994737849166699 -74.463376691600018 -184.94281327599995 72.225767276240006 1182.3928641350060 0.0000000000000000 0.0000000000000000 0.0000000000000000 0.0000000000000000 3.1702547888124424 3.3469018117645626 1.1767149301890334 1.0844482845501631 5646.0310334849355 5644.3285804321795 1.0847642787743375 
-70.831681932868619 -212.93412497547965 79.771533875193768 -70.831681932868619 -212.93412497547962 79.771533875193768 -3093.1557510197035 0.00017122850629207686 8.6256725744966438e-05 -0.00046123728470104456 -3242.1529873595359 1.7847101824175482e-08 7.3023843638608810e-09 3.1749212897835832e-05 0.013748304045524047 -1.1091695380356045e-09 9.9893026679547090e-11 8.9853572750671963e-10 0.014463373689333942 -69.736773305200003 -211.58846536000007 86.592267764799999 1391.6778601551057 0.0000000000000000 0.0000000000000000 0.0000000000000000 0.0000000000000000 3.1690331177490765 3.3445349277025724 1.1755725897372447 1.0844482845501635 6812.4925765254748 6811.9620172070481 1.0842397316221573 
-88.141744935494799 -208.57502647322380 83.706324893649082 -88.141744935494813 -208.57502647322374 83.706324893649054 -2282.0882951268063 0.00090739573341604835 -0.00045067634363587958 -0.00047097995945105778 -2624.3401969426568 2.1644890130234629e-08 7.0606364088732221e-09 3.0730133003586957e-05 0.011021339024112745 -5.6112474003095782e-09 3.2701360085782637e-09 5.4357739723140715e-10 0.012659132432178505 -86.813844096400004 -207.27391660800001 90.308128229600001 1955.0875990986240 0.0000000000000000 0.0000000000000000 0.0000000000000000 0.0000000000000000 3.1720231684844933 3.3506633170577440 1.1787128707716492 1.0844482845501635 5183.3603876954749 5188.2171759235871 1.0856916248166470 
-75.531784579123212 -213.94129637252854 94.665018701597006 -75.531784579123212 -213.94129637252854 94.665018701597006 -2438.7345623357201 7.4051441498987976e-05 3.8729096268743311e-05 -0.00014958427442713393 -2757.3633216450880 1.8878294510971116e-08 7.3582276938211050e-09 2.7891917589784050e-05 0.011138413260570006 -4.7853258330948740e-10 -2.4568589874228407e-10 5.6486356384750570e-10 0.012057451365320508 -74.373612905599998 -212.58534351999998 100.65708370800000 988.41240310934302 0.0000000000000000 0.0000000000000000 0.0000000000000000 0.0000000000000000 3.1703906114528078 3.3473763406780974 1.1770589845236266 1.0844482845501633 5878.5296661156108 5881.1077018158503 1.0849291760942108 
-66.795303731367952 -186.73783357287391 102.45297257361901 -66.795303731367923 -186.73783357287380 102.45297257361894 -1507.2816849479914 0.00036133258689147711 -0.00084714032087053915 -0.00067023256905452224 -2.6352454261903324e-18 1.6961524101910541e-08 5.8495287502680071e-09 2.5874898859967743e-05 0.0074963287358345843 -2.7366503731825375e-09 6.2378985263815576e-09 1.0034074646400957e-09 3.2645712816861659e-19 -65.754724465942374 -185.65989863464350 108.01171823852535 1808.0980320372519 0.0000000000000000 0.0000000000000000 0.0000000000000000 0.0000000000000000 3.1649579686759068 3.3356503219511739 1.1707463632162178 1.0832350950968748 3445.3204834247431 3415.5900749108687 1.0819955140269950 
-84.743518384073781 -209.67295710068478 103.52584107589080 -84.743518384073795 -209.67295710068476 103.52584107589078 -1592.4857897829820 0.00094301498812140549 -0.00062226260868791024 -0.00080025859366241261 -1436.1091062658338 2.0899328295742595e-08 7.1215303654170733e-09 2.5597034362334622e-05 0.0079722395029071039 -6.6151466557157018e-09 3.6059508031139353e-09 2.8440388834348501e-09 0.0073779792173141465 -83.461357431600007 -208.36062644399999 109.02489266960001 1287.0831768928649 0.0000000000000000 0.0000000000000000 0.0000000000000000 0.0000000000000000 3.1717113506870658 3.3500815917949613 1.1784441925847007 1.0844482845501631 3650.6310559663466 3698.3407225411220 1.0855639652096289 
-42.269301804366599 -130.54997046489319 57.706212879797746 -42.269301804366599 -130.54997046489322 57.706212879797739 -870.77336945555612 0.00030370269571774078 -7.9540966652154834e-05 -0.00027024070058789302 -1090.4016234683872 1.1580570530300703e-08 2.7333865171286224e-09 3.7463957301753219e-05 0.0053040605582083721 -1.8894932083255952e-09 1.3102130505135593e-09 2.1885436930534451e-09 0.0078527131540861005 -41.558840772800004 -130.04627243999997 65.754654395919971 2180.9238908936368 0.0000000000000000 0.0000000000000000 0.0000000000000000 0.0000000000000000 3.1697261901511160 3.3458775748635579 1.1762204107003191 1.0844482845501635 2638.3580522011066 2644.4440705469310 1.0845365931793158 
-23.242458944707398 -134.99423280091077 47.277290193041921 -23.242458944707401 -134.99423280091079 47.277290193041914 -1488.6060591015828 0.00011969547337163604 3.3224539223984080e-05 -6.1186777682289043e-05 -1523.2471783104318 7.4061221322363480e-09 2.9798453704543700e-09 4.0164966161881921e-05 0.0085742154144977743 -5.3350897977882861e-10 -1.0315244720929957e-10 2.0797673390369757e-10 0.0079115899088960089 -22.788097858800000 -134.44511465599999 55.905993737599999 935.86986824075086 0.0000000000000000 0.0000000000000000 0.0000000000000000 0.0000000000000000 3.1694109963416213 3.3452345874791014 1.1758926815112007 1.0844482845501637 3577.2380377340564 3573.6732487937074 1.0843861664508552 
-11.319650332118671 -103.83308950662176 53.845385376753249 -11.319650332118671 -103.83308950662173 53.845385376753249 -1331.0178027568836 1.0277369954947561e-05 -0.00027643121211443479 -0.00056453588523650553 -1147.0871287339471 4.7902838917757151e-09 1.2516724323674566e-09 3.8463881223194107e-05 0.0078331040900009620 -6.0688514553170978e-10 9.0110486883334602e-10 1.3310626134170089e-09 0.0072690921653733968 -11.025769398400001 -103.60243655599999 62.108642139439993 1284.9349949311236 0.0000000000000000 0.0000000000000000 0.0000000000000000 0.0000000000000000 3.1694803312449427 3.3453803400456006 1.1759692439573539 1.0844482845501635 3425.8504358564319 3424.1601694679066 1.0844212756389049 
-29.533290017545987 -141.37867521610224 62.277130198001650 -29.533290017545987 -141.37867521610224 62.277130198001650 -996.83008643326889 8.8853369539682096e-05 0.00016617227903851448 -0.00041319193405611526 -1062.3681147259786 8.7863169240254296e-09 3.3339387917052932e-09 3.6280125703669341e-05 0.0058793452021853893 -2.4256245739743976e-10 1.9300387845251774e-10 2.5451246636839408e-09 0.0095775457061277585 -28.994254794799993 -140.76430841599998 70.071247290159988 2176.9829965296321 0.0000000000000000 0.0000000000000000 0.0000000000000000 0.0000000000000000 3.1698843297054151 3.3462170770322537 1.1764022502026974 1.0844482845501633 2823.4423328452935 2834.8898310856744 1.0846197881806388 
-104.96067511379081 -195.21853015733097 87.658511291210488 -104.96067511379080 -195.21853015733095 87.658511291210502 -1271.7226302191489 4.1415442882897784e-05 -0.00015974971542068568 -0.00060538365157701481 -1574.9955017265218 2.5334935732646002e-08 6.3198862809699116e-09 2.9706547842067721e-05 0.0073532849178821079 -5.8342317311089300e-10 8.6910841033561091e-10 1.7448184634448608e-09 0.0076874064841637854 -103.40639267600000 -194.05392295999994 94.040416199999996 2662.2783756828549 0.0000000000000000 0.0000000000000000 0.0000000000000000 0.0000000000000000 3.1700193894523427 3.3465815757429316 1.1766342011554856 1.0844482845501633 3099.6243920927513 3105.3682553054091 1.0847302969622912 
-83.777661411420368 -163.13812957946428 70.463249585719012 -83.777661411420411 -163.13812957946436 70.463249585719026 -1486.6526632942853 -6.9857466409431631e-05 -0.00022490947975146446 -0.00021391059703771635 -1456.0759799672958 2.0687424912013697e-08 4.5407110293993461e-09 3.4159985242254720e-05 0.0084295854156654932 6.0521084145071902e-10 1.6957331570103653e-09 2.6446721696052761e-09 0.010902431122450150 -82.508500824799995 -162.30138233600007 77.801893530400037 2229.3857910936085 0.0000000000000000 0.0000000000000000 0.0000000000000000 0.0000000000000000 3.1720528575481581 3.3507173388723301 1.1787368003302214 1.0844482845501635 3622.1119665447241 3633.6923564901135 1.0857021436983987 
-28.516443770116357 -125.51429830342775 123.15236898572186 -28.516443770116350 -125.51429830342784 123.15236898572178 -60.281011254565854 2.2316130987925379e-05 -3.9612717611537609e-05 3.4222547853129377e-05 -4.9779047213672416e-19 8.5632240465205456e-09 2.4540948162510294e-09 2.0513918169484668e-05 0.00022499845456946783 1.6660750125031693e-09 6.3251329018479214e-10 -2.7424313272658304e-10 6.0046875598280957e-20 -27.991095225219734 -125.06206457489009 127.55940664489751 1124.7619503421174 0.0000000000000000 0.0000000000000000 0.0000000000000000 0.0000000000000000 3.1669830566216217 3.3399879720797929 1.1730670311246409 1.0847198841207359 873.04687056748651 821.83778849746545 1.0830873283437978 