# For a description of the Tecplot format see the Tecplot User's guide.
#
Variables=x,y,z,s_u,s_v,s_w,s_p,mono_f_vel_u,mono_f_vel_v,mono_f_vel_w,const,u_nu,v_nu,w_nu,p_nu,x_nu,y_nu,z_nu,const,u_ref,v_ref,w_ref,vol_ref,x_ref,y_ref,z_ref,const,I1,I2,I3,J,p1,p2,p3
Zone f=fepoint, n=3174, e=16683, et=brick, c=black
-25.5140 -155.111 105.453 -25.514001238614178 -155.11091148867132 105.45288484414026 -5.3632206687727155 8.8447662154886469e-06 -9.2356371131457443e-05 0.00015440953757158709 92.723380710095000 1.7465356938473067e-10 6.8667960206880720e-11 2.3163512317125878e-06 0.0081358328514037903 -3.7803993720802942e-08 -3.1492620939830871e-07 -1.1786149981352169e-07 0.00039757042395696988 -24.903554063199991 -154.16086777200002 112.24023381839994 89.724962256112903 0.0000000000000000 0.0000000000000000 0.0000000000000000 0.0000000000000000 3.2183995518298194 3.4472011619012473 1.2289368564030287 1.1144859123806210 1134.8140201993142 1134.8250700513004 1.1085917625747361 
-38.335605473751578 -156.03941525616187 108.29491175890786 -38.335605473751578 -156.03941525616196 108.29491175890782 -20.647724475306710 7.4341128402407683e-05 0.00013346954727475131 -1.4059073807596616e-05 0.0000000000000000 -4.5295142873687171e-05 7.1923782787689875e-05 -1.1394225757537472e-05 0.0034679753631060499 -2.8710022271145007e-09 -3.9698942879558091e-08 1.1057901352380622e-08 0.0000000000000000 -37.438273663334591 -155.10473791080037 114.93291110338620 89.036758072416930 0.0000000000000000 0.0000000000000000 0.0000000000000000 0.0000000000000000 3.2644677379022942 3.5481094055262794 1.2840327495605000 1.1295992941401998 1445.4239494515930 1445.4151024608152 1.1331725705959708 
-32.267495473888566 -148.74724783357723 113.64799105831626 -32.267495473888545 -148.74724783357721 113.64799105831619 -34.820107258931237 -2.6038618856424284e-05 0.00012551087755602872 5.1404055766142021e-05 0.0000000000000000 2.0739332473596050e-10 6.2745586504320259e-11 2.1204634350624474e-06 0.0077844533655616593 -1.5935214042474072e-08 1.1035132844653279e-07 1.0672632154795256e-07 0.0000000000000000 -31.542619574254449 -147.87907313389167 119.86135157363466 98.260374494724786 0.0000000000000000 0.0000000000000000 0.0000000000000000 0.0000000000000000 3.2386372294224954 3.4916950360780561 1.2532938558610376 1.1204676304556684 1400.9127069331853 1400.9099425857451 1.1194370428321418 
-29.322635044524976 -143.77154347022920 105.32845698898836 -29.322635044524983 -143.77154347022915 105.32845698898836 -24.604433213399325 -0.00023953460444887080 4.2656044175889387e-05 0.00013931849830777304 0.0000000000000000 1.9311857668569135e-10 5.8108406975065918e-11 2.3193254392595009e-06 0.037114235585055187 -1.9268834604539503e-07 1.4589844815132372e-07 2.0257795827387860e-08 0.0000000000000000 -28.647655777685479 -142.96738158566356 112.12452093910819 112.69127588814607 0.0000000000000000 0.0000000000000000 0.0000000000000000 0.0000000000000000 3.2461344051370413 3.5066872792852313 1.2607580516516674 1.1239417551241071 1352.9839719732774 1352.9797514041015 1.1227783038697197 
-24.861247349828329 -201.98524527845350 64.038519058394172 -24.861247349828325 -201.98524527845350 64.038519058394172 -2018.9665375562270 -0.00017122799606446540 9.2704278032865081e-05 -0.00012806168454833022 -1924.8093170060351 1.7149093256563219e-10 1.1224177143276395e-10 3.3062797193394999e-06 0.0032586597959591728 -3.1763637644156140e-09 1.6042871616437484e-08 -3.2624561187486193e-09 0.0031957819306202770 -24.261860196399997 -200.43215969199997 73.726546483199982 142.71380061529433 0.0000000000000000 0.0000000000000000 0.0000000000000000 0.0000000000000000 3.2177389058734920 3.4459966425468305 1.2284018884025454 1.1081051593235050 4578.7577570253379 4578.7805593170297 1.1083330100602014 
-24.754984436479205 -189.02543434093207 65.741104565849653 -24.754984436479209 -189.02543434093204 65.741104565849668 -2061.3844344027716 0.00012236437222096352 4.4387506623242944e-05 8.5666249730599470e-05 -2113.3347412381781 1.7097384619191303e-10 1.0017897622560665e-10 3.2655827872929413e-06 0.0079224317210799568 1.2444938335112010e-09 -2.6483206967498866e-08 -1.0021927871830502e-08 -0.0048392383180116683 -24.157397762799999 -187.63907770800003 75.309882232799993 165.73632395326644 0.0000000000000000 0.0000000000000000 0.0000000000000000 0.0000000000000000 3.2174328164959531 3.4452366066316165 1.2279420953241347 1.1081051593235034 4839.4219432535292 4839.3676737961487 1.1081160781820023 
-35.668035676208021 -196.89897932381413 72.501394840662186 -35.668035676208021 -196.89897932381422 72.501394840662201 -1951.5290593960026 0.00017905495373197395 -5.0620194305418943e-05 4.2021426299106480e-06 0.0000000000000000 2.2387647291566282e-10 1.0750422774208346e-10 3.1039914105690514e-06 0.012236254950466936 -1.4762470887313426e-08 -1.2948517298734042e-08 -1.5380156585371039e-08 0.0000000000000000 -34.885542273181727 -195.41132893576267 81.596679120775832 139.46796289390394 0.0000000000000000 0.0000000000000000 0.0000000000000000 0.0000000000000000 3.2151063448017263 3.4405421415604573 1.2255796140993518 1.1054357173500045 4654.8660753795739 4654.8483870305536 1.1070637267532950 
-19.328238851966887 -196.00586034614997 72.303833440291143 -19.328238851966891 -196.00586034615000 72.303833440291129 -2037.8297648668222 -1.2282058207138992e-05 0.00035790363657988745 0.00024342145781887982 0.0000000000000000 1.4466611242269778e-10 1.0667822181176234e-10 3.1087137219998340e-06 0.0027471742326002483 8.2558031778745264e-09 1.0117879478867722e-08 5.1870439477568577e-09 0.0000000000000000 -18.822600960987238 -194.52970000168264 81.412954998504986 111.95285379220412 0.0000000000000000 0.0000000000000000 0.0000000000000000 0.0000000000000000 3.2181484689369304 3.4467688661533957 1.2287631729431283 1.1081051593235061 4862.3909187905792 4862.4409263848393 1.1085007430297786 
-23.235828731751528 -103.49389624117559 31.254444675586363 -23.235828731751528 -103.49389624117558 31.254444675586367 -862.05138132935406 -0.00013357682544628405 0.00023113922107194422 -0.00021776957862055987 -914.48582584271855 1.6361084709259899e-10 2.0672130673915493e-11 4.0899181623643707e-06 -0.021309028125811317 4.6633792119304204e-09 -7.4565596425511720e-09 7.3114425828272538e-09 -0.019938520595353584 -22.663982073999996 -103.20790935200000 43.238681550399988 69.202643319072678 0.0000000000000000 0.0000000000000000 0.0000000000000000 0.0000000000000000 3.2172184738922343 3.4448756388660096 1.2277995561739312 1.1081051593235054 2741.2280996451491 2741.2280967130432 1.1080612066008533 
-30.852562481438429 -111.15768911141070 35.286957930669757 -30.852562481438436 -111.15768911141070 35.286957930669757 -783.38186939624359 -4.1583913556655527e-05 0.00021502040054516129 -0.00020026568819655403 -716.02314891551021 2.0053303462219671e-10 2.7788882306367671e-11 3.9935289084525039e-06 -0.023429373565007867 1.1373575003244690e-09 -4.7489788034950158e-09 3.9384066158583427e-09 -0.024933861423872928 -30.151660686400003 -110.77310694400001 46.988755992800002 74.715282964229786 0.0000000000000000 0.0000000000000000 0.0000000000000000 0.0000000000000000 3.2174794334545216 3.4454118568221621 1.2280750501020372 1.1081051593235047 2500.4487358213069 2500.4486216122391 1.1081856452154393 
-19.239280934724476 -103.85771577515479 38.534048758361159 -19.239280934724480 -103.85771577515477 38.534048758361159 -736.92308551182089 -0.00012139750474131240 0.00013469366498659421 -0.00019921213025817373 -745.33368607897194 1.4423451322187472e-10 2.1012080964055709e-11 3.9159136324684596e-06 -0.024211270090036818 2.4062123615560424e-09 -3.5942449805057226e-09 4.3260632425916270e-09 -0.024966261258115217 -18.735150314000002 -103.56704831999998 50.008419303199993 79.719497061372692 0.0000000000000000 0.0000000000000000 0.0000000000000000 0.0000000000000000 3.2172339413504738 3.4448987182355988 1.2278069570881436 1.1081051593235052 2472.0671868319851 2472.0673102114265 1.1080643777164636 
-26.112466584432724 -98.712057352513895 39.581211075870044 -26.112466584432710 -98.712057352513938 39.581211075870016 -766.41594259788508 -1.6256348921758596e-06 4.0867933576741914e-05 -0.00039811059904375625 0.0000000000000000 1.7755436010347125e-10 1.6226131549501588e-11 3.8908832848960620e-06 -0.023432217913803607 -1.5355259947925224e-09 -2.3895604293730333e-09 7.9207554102977485e-09 0.0000000000000000 -25.491879232152165 -98.487589184379729 50.982237960580505 72.292163684038698 0.0000000000000000 0.0000000000000000 0.0000000000000000 0.0000000000000000 3.2173890810701957 3.4452464161700029 1.2280004186832771 1.1081051593235052 2567.1773570430591 2567.1774248939673 1.1081519550360079 
-26.178338786363831 -104.33481496821989 101.75356007835906 -26.178338786363835 -104.33481496821983 101.75356007835902 -164.54218521283303 -7.7310931594050725e-05 0.00067371486490337110 -0.00060120834382447247 0.0000000000000000 -0.00017455312597210689 -1.3318307445509059e-05 -3.0701810804501070e-05 -0.13412167305896550 -5.8203114869125915e-07 -7.7127368247027858e-07 -4.3851613362911022e-08 0.0000000000000000 -25.283559732051039 -104.23282252886388 108.75695162467670 96.378087069502698 0.0000000000000000 0.0000000000000000 0.0000000000000000 0.0000000000000000 3.2715675705324871 3.5588091651893694 1.2871790300906476 1.1312357692103023 1591.8934775945959 1583.6919349401649 1.1344221412441096 
-26.790123426919958 -118.23847231318949 103.78588021938208 -26.790123426919962 -118.23847231318949 103.78588021938216 11.546635056117466 0.00019426428397315818 -0.00045612665903261093 -0.00043790308371291628 0.0000000000000000 -0.00012933367418330080 0.00020595660000621263 0.00011583327336176255 -0.093193851878199369 -8.6520163983110860e-08 9.5231991231766196e-08 1.3378200597212241e-06 0.0000000000000000 -25.913646985361510 -118.01095136745833 110.66456878241424 88.846747377876298 0.0000000000000000 0.0000000000000000 0.0000000000000000 0.0000000000000000 3.3165193174296386 3.6577115831196929 1.3412483944220306 1.1432480965785434 1464.4604775777791 1465.9900781324693 1.1584943470588973 
-37.746703370524322 -112.32086744991928 105.38957304848699 -37.746703370524308 -112.32086744991923 105.38957304848694 -503.78322405398688 -0.0020929947185114933 8.7761687660244139e-05 8.3124137423389941e-05 0.0000000000000000 -0.00015826983964977099 0.00035019042844476757 0.00013940954775082750 -0.36519670668219983 4.2436966622432766e-07 9.5548012623634920e-07 1.1742689113407583e-06 0.0000000000000000 -36.236867317722961 -112.72601430119678 112.03758904139967 95.996160021407249 0.0000000000000000 0.0000000000000000 0.0000000000000000 0.0000000000000000 3.1904484466938654 3.3858405961899964 1.1950070974091789 1.0987825784673846 1958.1978934418655 1958.8686195464475 1.0924524376533933 
-34.701943325316186 -104.88186266093365 98.673679163780122 -34.701943325316172 -104.88186266093363 98.673679163780108 -222.55357119471452 -0.00085786928535878590 0.00049380090965115699 0.0013166453251319083 0.0000000000000000 -0.00015754786643969960 0.00017814907340288718 -2.5983052479015239e-05 -0.70865977666457247 -5.6360620920067202e-07 4.9269529515946024e-07 -3.0438696916443926e-06 0.0000000000000000 -33.380789828628046 -105.09637623893835 105.63342596379557 85.433794965156210 0.0000000000000000 0.0000000000000000 0.0000000000000000 0.0000000000000000 3.2648469844336327 3.5426103186668141 1.2776672298034171 1.1191963041640680 1305.5720001174734 1300.6063396530301 1.1304359827713353 
-114.33481675737046 -161.69827019146152 118.81264490435173 -114.33481675737045 -161.69827019146149 118.81264490435176 -264.21463606150832 -1.0748288439865808e-05 4.3769326759057733e-05 -2.8192763300885193e-05 -240.67073505165129 6.0523108746934885e-10 7.4781514314281607e-11 1.9970125926249693e-06 -0.028657530578971645 5.6495389237007772e-09 -2.2243228785474655e-08 4.2667395461164975e-08 -0.022247220067027920 -112.21942232800005 -160.66347960400000 124.66427103520003 147.55923210393107 0.0000000000000000 0.0000000000000000 0.0000000000000000 0.0000000000000000 3.2146885902663294 3.4395417619156139 1.2249907586366262 1.1081051593235054 1637.4690806702713 1637.4685828914000 1.1067996924006118 
-101.42934635314241 -159.09600115782789 110.12470856185263 -101.42934635314244 -159.09600115782783 110.12470856185260 -248.84836042706382 -7.2054157491779639e-05 -6.1650880132818752e-05 -1.5286685947869731e-06 0.0000000000000000 5.4267290661158540e-10 7.2372774440054842e-11 2.2046805305819817e-06 -0.036453690705702771 1.5873244166132064e-08 1.1189832052894032e-07 2.0454976156176506e-08 0.0000000000000000 -99.532617471171264 -158.09468895943013 116.58484116745363 117.70414803503969 0.0000000000000000 0.0000000000000000 0.0000000000000000 0.0000000000000000 3.2262382644607568 3.4633327084597445 1.2372420274662514 1.1118329072832709 1662.3371435213419 1662.3371358535508 1.1122950068530983 
-106.32219404777571 -149.73587325351394 114.75600593303940 -106.32219404777564 -149.73587325351397 114.75600593303942 -244.60028658494156 -4.9687171112307138e-05 2.0871966332632837e-05 0.00029681621251939730 0.0000000000000000 5.6638504997152950e-10 6.3649086001760212e-11 2.0939785194684642e-06 -0.051622509529466468 1.3981378812577226e-08 -1.4147460394346578e-08 -1.4655587373245419e-07 0.0000000000000000 -104.34256255272837 -148.85497981259945 120.89176065121424 119.29379793442074 0.0000000000000000 0.0000000000000000 0.0000000000000000 0.0000000000000000 3.2238138877102309 3.4587954654629454 1.2351347251841103 1.1126700761466919 1675.7195615591563 1675.7196743001768 1.1113618977293880 
-102.44433619152618 -163.33895281193844 118.70892469908308 -102.44433619152611 -163.33895281193841 118.70892469908311 -249.16130762287167 -2.1003242765886338e-05 -2.4711505976589329e-05 1.1921409336944736e-05 0.0000000000000000 5.4759008438765033e-10 7.6313177999054447e-11 1.9994918201149407e-06 -0.028153316327264193 -1.2817968975908081e-08 8.5133734570623723e-10 4.0727758074628408e-09 0.0000000000000000 -100.53040969477119 -162.28305471776312 124.56781543385799 141.51484144144280 0.0000000000000000 0.0000000000000000 0.0000000000000000 0.0000000000000000 3.2183485806724406 3.4472702223372336 1.2290660008945837 1.1093905257626071 1615.7786777779186 1615.7785268126029 1.1086316541158039 
-79.933030785097884 -149.67758150108554 80.944288204974058 -79.933030785097898 -149.67758150108554 80.944288204974072 -357.41209540069735 -0.00028532765639475565 0.00016548060588298614 -0.00011966065776493130 -336.56152170132651 4.3845738151304653e-10 6.3615113177206708e-11 2.9021807499418624e-06 -0.023822251049524273 -2.6775625062677461e-08 8.6255878296057162e-08 -2.4591708258921649e-08 0.026830145233200823 -78.400527573600002 -148.79743798799998 89.448228916799977 108.06316173413846 0.0000000000000000 0.0000000000000000 0.0000000000000000 0.0000000000000000 3.2185185942813210 3.4468231032189300 1.2284196670788874 1.1081051593235058 1851.4985871337119 1851.4996981251181 1.1083492703743385 
-81.712008850818052 -163.59382131282624 79.142898998845453 -81.712008850818080 -163.59382131282624 79.142898998845425 -408.79126032184325 3.6912233047865716e-05 -0.00011473712548716776 2.0055277654660760e-06 -404.40874608392710 4.4709158597555638e-10 7.6552542083163644e-11 2.9452394016971084e-06 -0.010171407554225648 2.1567789673091705e-08 2.1880283817653552e-08 2.7407869856058614e-08 0.0046940885880704889 -80.149363288800018 -162.53464431600008 87.773009718400019 109.57810873427631 0.0000000000000000 0.0000000000000000 0.0000000000000000 0.0000000000000000 3.2216043032043142 3.4539826644805482 1.2325309181810105 1.1081051593235058 1877.1162868434660 1877.1157908329105 1.1102021466523360 
-85.929585239074541 -161.21298067762910 86.885370232316944 -85.929585239074598 -161.21298067762919 86.885370232316916 -381.73823777663256 -0.00013360884599065103 -1.6055105035318819e-05 -0.00018429869538036061 0.0000000000000000 4.6753279026034988e-10 7.4322770160506492e-11 2.7601709398084044e-06 -0.018988807253184317 5.2422409251775642e-10 3.2876347992288183e-08 7.4203862652128293e-08 0.0000000000000000 -84.295478612813938 -160.18443337667750 94.973195224810283 106.11323630727971 0.0000000000000000 0.0000000000000000 0.0000000000000000 0.0000000000000000 3.2114082247105773 3.4338854647284331 1.2226397705430052 1.1050145722989058 1817.1174171158123 1817.1173411259799 1.1057179024406478 
-88.145665762985217 -152.30408276763450 84.370518701660288 -88.145665762985175 -152.30408276763453 84.370518701660316 -466.99976625456748 -0.00035266527708908215 8.5486483559353652e-05 -0.00030890828483703866 0.0000000000000000 4.7826953508689485e-10 6.6036287549309249e-11 2.8202834894131001e-06 -0.032390591084526694 -6.3871423625727355e-08 2.5302797445340860e-08 9.9409044058559187e-08 0.0000000000000000 -86.474010682800568 -151.39014911596544 92.634484883397832 94.367740677547317 0.0000000000000000 0.0000000000000000 0.0000000000000000 0.0000000000000000 3.2036444532151775 3.4167509962161700 1.2132316925443094 1.1037914086751492 1980.1956154484935 1980.1956974177235 1.1014726800495749 
-26.648323240518614 -133.09773767306379 133.84593603847858 -26.648323240518611 -133.09773767306382 133.84593603847858 -56.364675486332139 0.00010596863555583891 -0.00022884728678157626 0.0013469344472738147 -10.922863675122359 1.8015217095879163e-10 4.8200776703311021e-11 1.6376715059607248e-06 0.19899730185288020 8.3387799691707795e-08 -2.0396028108403882e-07 1.5181871756662550e-06 0.19788269096954500 -26.018656529999991 -132.43089511199997 138.64462455200004 49.421240865332216 0.0000000000000000 0.0000000000000000 0.0000000000000000 0.0000000000000000 3.2115636568066770 3.4338403508999922 1.2225795276742528 1.1143710261147421 1137.7570859914395 1139.4414282039429 1.1057384672455794 
-33.236745429047197 -134.64354278136642 132.72580739630357 -33.236745429047204 -134.64354278136639 132.72580739630351 -73.343713367907839 -0.00024541376031402771 -0.00010871858346412406 7.8432504597823172e-05 -294.37885099321471 2.1208867995170522e-10 4.9628301468374054e-11 1.6644459712722439e-06 0.11021780245299972 -3.4859623913802132e-07 -2.2397220114096675e-07 5.2482926074438482e-07 0.86028408743169638 -32.495446914399992 -133.95681332000001 137.60295016000006 48.530522504776933 0.0000000000000000 0.0000000000000000 0.0000000000000000 0.0000000000000000 3.2386427156562418 3.4886869374754501 1.2498769308068096 1.1198044151262661 1393.5249425400682 1393.0109366819740 1.1177634628043596 
-29.089228366266749 -137.15785336629691 135.63676650815799 -29.089228366266749 -137.15785336629691 135.63676650815799 -112.41565323082378 0.00015447680985777851 0.00030156651363428307 4.6054190916226448e-05 -149.94366176621358 1.9198426182143180e-10 5.1952442348124350e-11 1.5948652620778601e-06 0.042649136086175828 2.6888255728024828e-07 4.8794974237964251e-08 1.9112401314023223e-08 -0.12131710584952332 -28.418203856399998 -136.43877710800004 140.31002455199999 44.353383947079159 0.0000000000000000 0.0000000000000000 0.0000000000000000 0.0000000000000000 3.2137963275517332 3.4374581919114124 1.2237933204329958 1.1090082238963872 1357.5156440462561 1356.6953804445545 1.1062440253244132 
-27.410953936051527 -130.13040472155095 139.44156597213234 -27.410953936051541 -130.13040472155092 139.44156597213228 -239.27803222270370 9.9349057892904714e-07 0.00024754734370423096 7.2546632254541683e-05 0.0000000000000000 1.8385082345417914e-10 4.5421666428069329e-11 1.5039190390808701e-06 0.013647582405577697 -2.0089740995269578e-07 6.6365961636279706e-08 -7.4643332274448206e-08 0.0000000000000000 -26.768365491316434 -129.50173712462359 143.84833436668455 49.139845408488213 0.0000000000000000 0.0000000000000000 0.0000000000000000 0.0000000000000000 3.2388802097197331 3.4914428682366396 1.2527125782610335 1.1152438856612334 1905.9363307796441 1915.8516113113337 1.1191701231965760 
-40.940591577604252 -65.270308521620763 150.30767951508432 -40.940591577604252 -65.270308521620777 150.30767951508432 -597.24598121703013 0.00070788244911845061 3.8161714002136064e-05 -0.0012226285167928467 -175.18853857311163 2.4943591636628071e-10 -1.4865886299730846e-11 1.2441860945955341e-06 0.19084713049852969 1.1822222937835787e-06 1.3423456516925436e-07 -1.7078150298959038e-06 1.0301273082388085 -40.068761925200000 -65.476070995999990 153.95338104800004 156.95717166164070 0.0000000000000000 0.0000000000000000 0.0000000000000000 0.0000000000000000 3.2661883142138795 3.5476272622609595 1.2816165111706339 1.1136885497393971 2089.7260059793084 2089.7244536884568 1.1324344369826638 
-53.511585865009614 -59.374159387712346 145.26491581212352 -53.511585865009614 -59.374159387712332 145.26491581212352 -764.11937489348043 0.00095559684870555339 0.00064531974184130127 -0.0025276591797940779 -353.10048056758939 3.1037994396854179e-10 -2.0353940755057920e-11 1.3647234009539491e-06 -0.61712413863796212 -3.2836556587070911e-06 -5.4467795253924734e-07 3.4537500938865745e-06 -1.3250242042898661 -52.426757905599978 -59.655776269200025 149.26381449600007 118.05125250056595 0.0000000000000000 0.0000000000000000 0.0000000000000000 0.0000000000000000 3.2383189805480730 3.4893385646748123 1.2511705573232104 1.1117050337254337 2549.8847859573066 2549.8944848265241 1.1184448096582023 
-35.960363765125969 -65.831223912390016 140.67953021111884 -35.960363765125969 -65.831223912390001 140.67953021111884 -1356.2419567955019 -0.00033015807034622992 0.00044800166276451017 -0.0012198959992768246 -1432.0082469896074 2.2529478282962145e-10 -1.4353851440773724e-11 1.4743279539430885e-06 0.19692662183437279 2.0878698775095395e-07 -3.8127455052904599e-07 5.3388312719229615e-07 0.17478572093472805 -35.172917262399999 -66.029770167599992 144.99959110400002 155.12084301790807 0.0000000000000000 0.0000000000000000 0.0000000000000000 0.0000000000000000 3.1922392065036438 3.3938228132382542 1.2016809818950551 1.1000960420150241 4076.3987455717656 4076.3968775206467 1.0959602472572596 
-51.462944782608986 -66.398884935462675 137.67281843111610 -51.462944782608957 -66.398884935462704 137.67281843111607 -1407.1249367681432 0.00054544329557348599 0.0020381854705519031 -0.0034919443522820072 0.0000000000000000 3.0044400300965885e-10 -1.3815615318435448e-11 1.5461974580688318e-06 -0.31929940052198585 -2.3143522639100166e-06 -5.5214772530499622e-06 1.6577336771504925e-06 0.0000000000000000 -50.412828244765279 -66.590128188430739 142.20347059834828 136.07757377940416 0.0000000000000000 0.0000000000000000 0.0000000000000000 0.0000000000000000 3.1343517866604036 3.2642124123385092 1.1297596012226723 1.0806618816388274 3566.7570431881627 3566.7581019215972 1.0629449924834378 
-96.370736495731236 -159.72617052727057 68.232593875130178 -96.370736495731236 -159.72617052727057 68.232593875130178 -722.20560550889786 -0.00022949685820957118 3.1193393366741764e-07 -0.00026540901751982433 -786.04165531470801 5.1814985635445510e-10 7.2950978591279636e-11 3.2060286585533500e-06 -0.016791824552485644 -1.3466384573811728e-08 8.0401403209030026e-09 -1.3975621882980313e-08 -0.012143292179931100 -94.559718839999974 -158.71675115199997 77.626866652000004 109.98746742214213 0.0000000000000000 0.0000000000000000 0.0000000000000000 0.0000000000000000 3.2168981431682018 3.4441763831266314 1.2274193895112935 1.1081051593235061 2557.2801949953491 2557.2800475135377 1.1078909539983999 
-91.409088796665898 -159.47256187668967 73.406460695115271 -91.409088796665870 -159.47256187668970 73.406460695115271 -509.59946601935519 -0.00045790062279185066 0.00062226613517364008 -0.00017519697002658455 -380.69406287763644 4.9409731861516093e-10 7.2706285436652252e-11 3.0823576118166325e-06 -0.015083617918334553 -8.1004186136580167e-09 -1.7897799516281720e-08 -5.5069874343931361e-09 0.00035397616087310535 -89.682139475999989 -158.46640519600001 82.438353807199988 112.88451412247700 0.0000000000000000 0.0000000000000000 0.0000000000000000 0.0000000000000000 3.2171182363093611 3.4445222132130628 1.2275436437856622 1.1081051593235052 1984.3813850865197 1984.3827677839427 1.1079431537016124 
-104.66135748647504 -155.90428922628129 77.891206248268148 -104.66135748647504 -155.90428922628135 77.891206248268176 -715.13193424115673 -8.9377308760414214e-06 0.00017384979303885326 -0.00011519245705547415 0.0000000000000000 5.5834015189049069e-10 6.9400485358528398e-11 2.9751586385629025e-06 -0.024191166689212354 -1.4260104567128331e-08 -1.0147406026884613e-08 1.8955974167615058e-08 0.0000000000000000 -102.70986659571734 -154.94403864466588 86.608986019839278 111.02505284862640 0.0000000000000000 0.0000000000000000 0.0000000000000000 0.0000000000000000 3.2168819125858179 3.4440904476416891 1.2273460430330059 1.1062965057428671 2534.8274357920395 2534.8272306504382 1.1078511353015474 
-102.31886523987940 -168.29355267722406 74.730949769911106 -102.31886523987940 -168.29355267722406 74.730949769911135 -519.32564931335742 -0.00035636425551085869 0.00030183034409917391 -0.00046869463779075599 0.0000000000000000 5.4698012785792116e-10 8.0907280874953371e-11 3.0506983073053107e-06 -0.017767556473483232 3.2477122666828988e-09 -1.3543741787287305e-09 6.6022196151539396e-09 0.0000000000000000 -100.40706467681501 -167.17391327890167 83.670075146830683 105.53983917324770 0.0000000000000000 0.0000000000000000 0.0000000000000000 0.0000000000000000 3.2186264477579800 3.4480031421933464 1.2295269752669324 1.1077364560329479 1998.8755559482738 1998.8753711324478 1.1088388861666478 
-116.78090224689855 -100.04750016955819 88.604873561868473 -116.78090224689852 -100.04750016955816 88.604873561868459 -424.46676784618893 -8.3083853835560839e-06 -6.2185357841046618e-05 9.5207581115253721e-05 -385.35844103792482 6.1709404253207367e-10 1.7457368883810886e-11 2.7190696165746431e-06 -0.052686841023677405 -5.1059812872064718e-08 -7.5652390736059700e-08 -2.2683805469393954e-07 -0.034788709369924745 -114.62406224400000 -99.805851428000011 96.572263865600007 85.211636250682801 0.0000000000000000 0.0000000000000000 0.0000000000000000 0.0000000000000000 3.2175867696612577 3.4454318995777053 1.2279803326318688 1.1100217507507071 1892.4457234510194 1892.4340541327122 1.1081385241663464 
-113.18344817934533 -91.225798856730847 92.528704897407962 -113.18344817934532 -91.225798856730847 92.528704897407948 -439.04026977782030 4.4515801957680090e-05 2.5370816279952126e-05 0.00024370474072504288 -475.00888676997312 5.9965132859218784e-10 9.2634788728673811e-12 2.6252781886171306e-06 -0.10845335345403342 1.1942113205190581e-07 3.0439819457770115e-07 -3.5405048118989190e-08 -0.095159475206125568 -111.08756211600000 -91.097641973600034 100.22126851279998 99.535403830130534 0.0000000000000000 0.0000000000000000 0.0000000000000000 0.0000000000000000 3.2129369930302780 3.4352251014800408 1.2224107800366499 1.1091197791629779 1955.3782592805583 1955.3791032139816 1.1056430227338632 
-115.03154763326303 -97.869432624917962 101.30923981343044 -115.03154763326303 -97.869432624917934 101.30923981343041 -416.31842387238072 5.8042170358284341e-05 0.00025239427629823301 -0.00015965571865723586 -521.63915532131091 6.0861171657933265e-10 1.5437651157412802e-11 2.4153968709583747e-06 -0.067738983193572272 -3.9356354213673556e-08 -1.2104125520678301e-07 9.5311198541230908e-08 -0.012226270848113154 -112.90434805199999 -97.655804887999992 108.38681131359999 128.09762094244454 0.0000000000000000 0.0000000000000000 0.0000000000000000 0.0000000000000000 3.2116464803605997 3.4327260993842041 1.2212085984669041 1.1105686520353808 2038.2984046242482 2038.2995209755654 1.1051684722583277 
-109.18276627927871 -104.13544172789656 92.882372405761004 -109.18276627927875 -104.13544172789658 92.882372405761046 -458.26492208924213 -4.3257325660182804e-05 -0.00017337754202792659 0.00021236980946513407 0.0000000000000000 5.8025462212896162e-10 2.1262991367620995e-11 2.6168244655622179e-06 -0.079924386861938396 1.6458974524809730e-07 -1.9919777024163796e-08 1.1078931466926596e-07 0.0000000000000000 -107.15466629968294 -103.84120130723400 100.55016500991876 102.24201981555134 0.0000000000000000 0.0000000000000000 0.0000000000000000 0.0000000000000000 3.2218163463805785 3.4554874192969289 1.2338376814443397 1.1118022141049102 1982.2594230074612 1982.2586607677872 1.1107638068834307 
-27.771044074348726 -115.58356486636151 95.950543985193008 -27.771044074348740 -115.58356486636150 95.950543985192965 -14.496788267447078 0.00030004512962807794 -0.00017815041909002770 -0.00015653266639731412 0.0000000000000000 -0.00013450643883029803 0.00024985467569412227 3.4217668446354083e-05 -0.078930988199720900 -5.5101468720334535e-08 1.1170716805166317e-06 -9.4581942025198399e-07 0.0000000000000000 -26.889884864405381 -115.37486796036181 103.37575244326078 96.382960025775517 0.0000000000000000 0.0000000000000000 0.0000000000000000 0.0000000000000000 3.3000768107567651 3.6214271376669265 1.3213604608417269 1.1405546707384364 1502.6213208110159 1501.2568024272593 1.1494902938964409 
-111.63803532390627 -103.91315403660536 148.41949950107315 -111.63803532390627 -103.91315403660541 148.41949950107315 -127.15388851772349 -3.0526074362286083e-05 -8.0580206670117005e-05 -4.6359772510215784e-05 -128.39580905009592 5.9216109793425176e-10 2.1055823751225944e-11 1.2893192984364532e-06 0.029482975193273527 1.6594182547084305e-08 -3.3085035167154609e-08 1.6275261396983751e-07 0.074652224187676433 -109.56833416800004 -103.62177336400003 152.19744990400002 70.302883591683823 0.0000000000000000 0.0000000000000000 0.0000000000000000 0.0000000000000000 3.2057192626374591 3.4204544548496632 1.2148528634654023 1.1087802989848032 1352.5778692718336 1352.5778294772902 1.1022290377336843 