# For a description of the Tecplot format see the Tecplot User's guide.
#
Variables=x,y,z,s_u,s_v,s_w,s_p,mono_f_vel_u,mono_f_vel_v,mono_f_vel_w,const,u_nu,v_nu,w_nu,p_nu,x_nu,y_nu,z_nu,const,u_ref,v_ref,w_ref,vol_ref,x_ref,y_ref,z_ref,const,I1,I2,I3,J,p1,p2,p3
Zone f=fepoint, n=3174, e=16683, et=brick, c=black
-25.2604 -154.717 108.364 -25.260449337228707 -154.71726152099839 108.36396556966089 -10.324450949976425 5.8372179224155342e-06 -6.7236075510678390e-05 0.00011247776163227040 64.625700202754373 1.1465836752266867e-09 5.9457849754807047e-10 3.5977581767099318e-06 0.0012567394330989389 -6.9523555112698006e-09 -5.5549742431034892e-08 -2.3537907076821801e-08 -0.0012814390025402422 -24.903554063199991 -154.16086777200002 112.24023381839994 89.724962256112903 0.0000000000000000 0.0000000000000000 0.0000000000000000 0.0000000000000000 3.1241760430159236 3.2517759664514823 1.1276249108540422 1.0657701647574975 661.58403161542469 661.58402990745321 1.0618998463076550 
-37.968535435564945 -155.67355446126876 111.13189254678213 -37.968535435564945 -155.67355446126879 111.13189254678217 -19.726477280092656 5.9859030211862462e-05 0.00010860335315925118 -1.4153895558129519e-05 0.0000000000000000 -7.0289580096792488e-06 1.0107012524676020e-05 7.7535254901521742e-07 0.00071974750942136411 1.0765313791263956e-10 -5.4993850121751900e-09 4.3461717877444238e-10 0.0000000000000000 -37.438273663334591 -155.10473791080037 114.93291110338620 89.036758072416930 0.0000000000000000 0.0000000000000000 0.0000000000000000 0.0000000000000000 3.1568885190731675 3.3207825012087069 1.1639833937739790 1.0762103176211053 891.09814297444132 891.09815303913979 1.0788957456534016 
-31.966415101952983 -148.38752023739553 116.31288925427609 -31.966415101952979 -148.38752023739559 116.31288925427602 -28.240623339419770 -2.4996545585181212e-05 8.5480089790589692e-05 2.4530370375733451e-05 0.0000000000000000 1.3615102517627875e-09 5.4335702603935943e-10 3.2935051326177245e-06 0.0015813044125047298 -2.5770940520935965e-09 1.7315454064933416e-08 1.7864624057535799e-08 0.0000000000000000 -31.542619574254449 -147.87907313389167 119.86135157363466 98.260374494724786 0.0000000000000000 0.0000000000000000 0.0000000000000000 0.0000000000000000 3.1373424590133161 3.2796006038015362 1.1423081483077697 1.0695527458231497 846.77740167374827 846.77740121985346 1.0687616505668949 
-29.042279457021749 -143.43833954044351 108.24327555064303 -29.042279457021770 -143.43833954044342 108.24327555064296 -21.236248906678703 -0.00017327027994844423 1.7322196920456501e-05 0.00010679887596348137 0.0000000000000000 1.2677902755386938e-09 5.0329440615115573e-10 3.6023777187921269e-06 0.0065478538645366612 -3.2046191202614337e-08 2.5362070696370755e-08 5.6390272228354851e-09 0.0000000000000000 -28.647655777685479 -142.96738158566356 112.12452093910819 112.69127588814607 0.0000000000000000 0.0000000000000000 0.0000000000000000 0.0000000000000000 3.1425975890423810 3.2901169358917302 1.1475619972749491 1.0717525208398768 809.34577713916201 809.34577774090326 1.0712230567984238 
-24.612289276896529 -201.34172532229528 68.193695108958750 -24.612289276896526 -201.34172532229530 68.193695108958750 -1611.0394323396858 -0.00012398415362858904 6.9799238118640691e-05 -9.1960695786415565e-05 -1540.7163314267125 1.1258097093458375e-09 9.7200547610754029e-10 5.1353157282107995e-06 0.0068040205131888820 -7.7160563538203800e-10 3.5164988520133490e-09 -5.8455113631734158e-10 0.0064449559544177753 -24.261860196399997 -200.43215969199997 73.726546483199982 142.71380061529433 0.0000000000000000 0.0000000000000000 0.0000000000000000 0.0000000000000000 3.1238848856591579 3.2512468635122720 1.1273897790703751 1.0615641856835056 3408.9801153159287 3408.9801152987316 1.0617868488355728 
-24.506774200677597 -188.45099841323710 69.845134628056698 -24.506774200677597 -188.45099841323710 69.845134628056698 -1638.1327776382764 8.6172446107083770e-05 2.4794852700778490e-05 5.7726116132978704e-05 -1684.1280170055293 1.1224273038790147e-09 8.6765139517552825e-10 5.0721052158309030e-06 0.0078357676836329666 -4.4739769482698726e-10 -5.7809537037787959e-09 -2.2887621956212249e-09 0.0047720470373578544 -24.157397762799999 -187.63907770800003 75.309882232799993 165.73632395326644 0.0000000000000000 0.0000000000000000 0.0000000000000000 0.0000000000000000 3.1235559140857534 3.2505142053934160 1.1269844570468008 1.0615641856835041 3601.9287432431329 3601.9287432351803 1.0615901007393318 
-35.343023622504461 -196.28257239759716 76.402344513558319 -35.343023622504461 -196.28257239759728 76.402344513558262 -1549.6816875401369 0.00015312934084811230 -3.0963078704114713e-05 6.4380270046115393e-06 0.0000000000000000 1.4697281863762512e-09 9.3105112508595766e-10 4.8211214132010127e-06 0.0093800790469337324 -1.1875830701135890e-09 -2.7504724055575315e-09 -4.3392508151636811e-09 0.0000000000000000 -34.885542273181727 -195.41132893576267 81.596679120775832 139.46796289390394 0.0000000000000000 0.0000000000000000 0.0000000000000000 0.0000000000000000 3.1214290278240315 3.2462083564078630 1.1248063936552335 1.0594381361197989 3453.7803449638186 3453.7803450495408 1.0605692421250692 
-19.118219944788812 -195.39421431167531 76.210717894752733 -19.118219944788809 -195.39421431167531 76.210717894752676 -1622.8242212194209 -9.9304649482347793e-06 0.00025775460354353894 0.00017672553570476874 0.0000000000000000 9.4972331388110121e-10 9.2386509553676898e-10 4.8284561096068046e-06 0.0065819616401744351 2.0441414397429414e-09 1.6841807932386752e-09 8.5109120118690293e-10 0.0000000000000000 -18.822600960987238 -194.52970000168264 81.412954998504986 111.95285379220412 0.0000000000000000 0.0000000000000000 0.0000000000000000 0.0000000000000000 3.1240866916737580 3.2516251804109109 1.1275659344389339 1.0615641856835039 3622.4603279273028 3622.4603279198791 1.0618718628909702 
-22.998309724025024 -103.37539776820711 36.394460476843925 -22.998309724025027 -103.37539776820711 36.394460476843925 -733.80336026559075 -0.00010981800891106936 0.00018121702183418605 -0.00017190295763487606 -774.62635459205944 1.0740818651155948e-09 1.7898282855810521e-10 6.3524634530409693e-06 -0.0018892413209172952 8.2293600598822962e-10 -1.5652094399376066e-09 1.4868881265218585e-09 -0.0015549843584070754 -22.663982073999996 -103.20790935200000 43.238681550399988 69.202643319072678 0.0000000000000000 0.0000000000000000 0.0000000000000000 0.0000000000000000 3.1233779366956038 3.2501886158564242 1.1268379023907691 1.0615641856835050 2012.6963586411689 2011.6767231549607 1.0615262534851029 
-30.561439858590838 -110.99833775198144 40.305836276514356 -30.561439858590841 -110.99833775198142 40.305836276514356 -669.01372645455911 -2.6696422444410714e-05 0.00017212112070125529 -0.00016255515734685377 -612.94894756325095 1.3164801054843520e-09 2.4069213289124036e-10 6.2027516065654700e-06 -0.0023628278463698285 3.6898129383995874e-10 -1.0418499600519169e-09 9.9867373147851844e-10 -0.0024676231655621291 -30.151660686400003 -110.77310694400001 46.988755992800002 74.715282964229786 0.0000000000000000 0.0000000000000000 0.0000000000000000 0.0000000000000000 3.1236169202703077 3.2506742884089452 1.1270846640370242 1.0615641856835050 1818.0784376127133 1818.1685342697372 1.0616425872767703 
-19.029888078832236 -103.73727791285708 43.455383885999240 -19.029888078832240 -103.73727791285707 43.455383885999247 -630.74846180857674 -9.7424669233135415e-05 0.00010353203241992908 -0.00016001547646411695 -638.05855855519508 9.4689141250103859e-10 1.8191470552153535e-10 6.0821994942727989e-06 -0.0025235678193945839 5.3363275433531262e-10 -9.7417135392057096e-10 1.0014123606597952e-09 -0.0026699706445092522 -18.735150314000002 -103.56704831999998 50.008419303199993 79.719497061372692 0.0000000000000000 0.0000000000000000 0.0000000000000000 0.0000000000000000 3.1233914763786959 3.2502124143955204 1.1268481108465662 1.0615641856835063 1793.0068323961680 1790.5648169068681 1.0615309480204111 
-25.854702916282818 -98.619049119756752 44.471089250852742 -25.854702916282807 -98.619049119756724 44.471089250852749 -653.31421240078021 2.9876739745312307e-06 2.6075017689254616e-05 -0.00032943410770695076 0.0000000000000000 1.1656273862792332e-09 1.4047751850654322e-10 6.0433223527667232e-06 -0.0022905104336583344 -2.9415133340472916e-10 -6.4800007561854908e-10 1.6126526208625902e-09 0.0000000000000000 -25.491879232152165 -98.487589184379729 50.982237960580505 72.292163684038698 0.0000000000000000 0.0000000000000000 0.0000000000000000 0.0000000000000000 3.1235107265999891 3.2504678198444545 1.1269845068713655 1.0615641856835052 1866.5803013138648 1865.7090627932434 1.0615953769301429 
-25.815175322082698 -104.29134962242878 104.75214675307582 -25.815175322082716 -104.29134962242873 104.75214675307585 -107.39147485110733 -5.1235151457572565e-05 0.00040236826890002340 -0.00035599037877664176 0.0000000000000000 -2.5577073046748306e-05 -4.2545817587410683e-06 -2.9709394096055899e-06 -0.015957055125084933 -7.2086427799900581e-08 -1.2737376109951178e-07 -4.6822326134585282e-08 0.0000000000000000 -25.283559732051039 -104.23282252886388 108.75695162467670 96.378087069502698 0.0000000000000000 0.0000000000000000 0.0000000000000000 0.0000000000000000 3.1565153962897470 3.3182256985311467 1.1616939941944695 1.0761254470941357 956.84761363201335 956.84761659297124 1.0777825542823374 
-26.434665007338733 -118.14391384095322 106.72517795383880 -26.434665007338715 -118.14391384095323 106.72517795383875 3.9747650730933897 0.00010798791279687392 -0.00027079389233133038 -0.00025908516521079192 0.0000000000000000 -1.9777535094767453e-05 3.0488158207954499e-05 2.1014495815957053e-05 -0.013904554122005579 -1.4814606004908021e-08 1.2639425618623740e-08 2.0810556030698019e-07 0.0000000000000000 -25.913646985361510 -118.01095136745833 110.66456878241424 88.846747377876298 0.0000000000000000 0.0000000000000000 0.0000000000000000 0.0000000000000000 3.1859424003350192 3.3803476821261698 1.1944145168343139 1.0837822446105838 893.42580075647845 893.42579860475701 1.0930314298577890 
-37.139752714508880 -112.47986982727573 108.22934903139524 -37.139752714508866 -112.47986982727572 108.22934903139516 -309.34295991516223 -0.0012446974826008852 4.7017341319316175e-05 3.9512373575224212e-05 0.0000000000000000 -2.5536935465208460e-05 5.0629191322879529e-05 2.5197562075622075e-05 -0.053559617077421753 5.6914058311652169e-08 1.3146987994141450e-07 1.7695718911705269e-07 0.0000000000000000 -36.236867317722961 -112.72601430119678 112.03758904139967 95.996160021407249 0.0000000000000000 0.0000000000000000 0.0000000000000000 0.0000000000000000 3.1109184365201701 3.2234449273720185 1.1124451885100022 1.0583787795222430 1201.3708516954837 1201.3708557860948 1.0544822757533929 
-34.167535789534341 -104.96013281144680 101.64368628532242 -34.167535789534334 -104.96013281144680 101.64368628532246 -141.23207424729102 -0.00053057602051440706 0.00030574045286118034 0.00080631249023194759 0.0000000000000000 -2.5050399879497915e-05 2.4935866705147912e-05 -2.0839244296876040e-06 -0.10629662770848679 -8.4003463016620533e-08 6.5175577484456750e-08 -4.8178667159967500e-07 0.0000000000000000 -33.380789828628046 -105.09637623893835 105.63342596379557 85.433794965156210 0.0000000000000000 0.0000000000000000 0.0000000000000000 0.0000000000000000 3.1553263097733333 3.3151665593386026 1.1598226555964528 1.0700438680056690 789.01731446247402 789.01731915451444 1.0769932632042083 
-113.45617843885718 -161.26950541553131 121.32239592895165 -113.45617843885718 -161.26950541553131 121.32239592895165 -223.90486048308790 -7.8136509070173093e-06 3.2959249097810359e-05 -2.7389475994424233e-05 -203.54921124653478 3.9732682838300456e-09 6.4761584983585863e-10 3.1017612105443959e-06 -0.0040055850143870080 1.0863947720031973e-09 -4.2160936406769561e-09 7.7580789395996417e-09 -0.0027791649460253772 -112.21942232800005 -160.66347960400000 124.66427103520003 147.55923210393107 0.0000000000000000 0.0000000000000000 0.0000000000000000 0.0000000000000000 3.1227915440060552 3.2490398980979514 1.1262762425592572 1.0615641856835065 1077.6110116364109 1062.6439387500739 1.0612637365444539 
-100.64153172510316 -158.68110812963036 112.89544682561250 -100.64153172510309 -158.68110812963036 112.89544682561247 -216.32187726304952 -6.4481771236202798e-05 -4.1843547712694391e-05 -3.2125972063751583e-05 0.0000000000000000 3.5625543765016587e-09 6.2668259470655140e-10 3.4243111759479920e-06 -0.0056550412472542010 2.7449444152622416e-09 1.9945873727942641e-08 3.2995010182850859e-09 0.0000000000000000 -99.532617471171264 -158.09468895943013 116.58484116745363 117.70414803503969 0.0000000000000000 0.0000000000000000 0.0000000000000000 0.0000000000000000 3.1268834339875426 3.2569856024360990 1.1301250992712755 1.0629033927104397 1086.1693132747134 1087.6922842413835 1.0630649781738812 
-105.49994545718920 -149.37087565555680 117.38761915409816 -105.49994545718921 -149.37087565555689 117.38761915409808 -206.83615127317381 -4.7361860110174160e-05 6.6706753958024800e-06 0.00019485647870313522 0.0000000000000000 3.7182733697571639e-09 5.5131688103671195e-10 3.2523687547580944e-06 -0.0083490785990717031 1.9240965210907665e-09 -2.4673312438681316e-09 -2.8727888174297412e-08 0.0000000000000000 -104.34256255272837 -148.85497981259945 120.89176065121424 119.29379793442074 0.0000000000000000 0.0000000000000000 0.0000000000000000 0.0000000000000000 3.1253627849291288 3.2541327813039276 1.1287959941817833 1.0634735966151436 1085.1174812680113 1084.4773282901269 1.0624464286692332 
-101.64937845904919 -162.90144215496116 121.22179149812598 -101.64937845904920 -162.90144215496102 121.22179149812607 -211.40223885626770 -1.7042690901670714e-05 -2.7985439015663240e-05 9.6660056656862432e-06 0.0000000000000000 3.5948660853657444e-09 6.6082550542745366e-10 3.1056119542682836e-06 -0.0039298928500114379 -2.0871383752571454e-09 -1.6158625659586017e-10 8.3771593747721523e-10 0.0000000000000000 -100.53040969477119 -162.28305471776312 124.56781543385799 141.51484144144280 0.0000000000000000 0.0000000000000000 0.0000000000000000 0.0000000000000000 3.1225630736516909 3.2484575100406525 1.1259202362394549 1.0615416575244578 1045.6701478431717 1036.2071949407555 1.0610931798719319 
-79.296498880611665 -149.31289463521418 84.591611775789445 -79.296498880611679 -149.31289463521418 84.591611775789460 -302.93090443472823 -0.00022929544652179696 0.00012145100698390244 -9.4658302662914670e-05 -294.62335579213681 2.8784500477607722e-09 5.5082949312890161e-10 4.5076689563217087e-06 -0.0024623757791434257 -1.5011149773275256e-10 1.5281507731191397e-08 -2.5256188961227884e-09 0.0059736811142824947 -78.400527573600002 -148.79743798799998 89.448228916799977 108.06316173413846 0.0000000000000000 0.0000000000000000 0.0000000000000000 0.0000000000000000 3.1251916018022969 3.2536330787898113 1.1284638587880649 1.0615641856835061 1269.6364719228445 1269.6369064535231 1.0622965669436015 
-81.062957189349703 -163.15495204476625 82.844336639680009 -81.062957189349703 -163.15495204476625 82.844336639680009 -353.65751839496841 4.6496380526661252e-06 -8.3460118982525035e-05 -9.6958797853644804e-06 -344.74825251160536 2.9350674252137665e-09 6.6289607136837958e-10 4.5745476757730330e-06 0.00034133583109718799 5.5365692349387113e-09 4.4986009267798702e-09 5.9225599730618102e-09 0.0027336456942496997 -80.149363288800018 -162.53464431600008 87.773009718400019 109.57810873427631 0.0000000000000000 0.0000000000000000 0.0000000000000000 0.0000000000000000 3.1269251584322717 3.2574139408181826 1.1305182566241814 1.0615641856835047 1295.5661277385793 1295.5661484228272 1.0632644072349824 
-85.250851912355756 -160.78680280321683 90.354222583407335 -85.250851912355756 -160.78680280321683 90.354222583407307 -318.30628490303985 -9.5203849304634585e-05 -8.0314739704821416e-06 -0.00017432335956267181 0.0000000000000000 3.0692840630175407e-09 6.4373029129427550e-10 4.2870992285060083e-06 -0.0016547881649344857 1.0342010463767973e-09 4.7062778565802782e-09 1.3628156549580157e-08 0.0000000000000000 -84.295478612813938 -160.18443337667750 94.973195224810283 106.11323630727971 0.0000000000000000 0.0000000000000000 0.0000000000000000 0.0000000000000000 3.1180944877904735 3.2398259009620500 1.1217627327948785 1.0587669582764943 1206.3698022630415 1206.3691430996844 1.0591238348305145 
-87.451336521877820 -151.92539498082903 87.914917664973473 -87.451336521877863 -151.92539498082900 87.914917664973473 -384.50761697676597 -0.00025002246275160524 5.2794730388677222e-05 -0.00026961048390487281 0.0000000000000000 3.1398104255453414e-09 5.7199411873654071e-10 4.3804660734281242e-06 -0.0036332022974558541 -1.2258500322999666e-08 3.1587814905628054e-09 2.1052058729261960e-08 0.0000000000000000 -86.474010682800568 -151.39014911596544 92.634484883397832 94.367740677547317 0.0000000000000000 0.0000000000000000 0.0000000000000000 0.0000000000000000 3.1134947356366269 3.2300501373013666 1.1165793891193407 1.0579078917830800 1344.8729248162672 1344.8729199658703 1.0566830822071605 
-26.386788421256320 -132.82143191155060 135.90408417443962 -26.386788421256316 -132.82143191155063 135.90408417443956 -67.332324532164520 8.5223752796899423e-05 -0.00016508887705057532 0.00094631493827211828 -56.406988745811880 1.1826813001158953e-09 4.1733250188968896e-10 2.5436324033734085e-06 0.032799552913215305 1.5586952900892332e-08 -3.3092720728403079e-08 2.4365796072963906e-07 0.031749213616595336 -26.018656529999991 -132.43089511199997 138.64462455200004 49.421240865332216 0.0000000000000000 0.0000000000000000 0.0000000000000000 0.0000000000000000 3.1204336732738938 3.2444100641477580 1.1240362237984267 1.0653050162617852 719.39127965245211 719.39128010215359 1.0602220060975098 
-32.928843852214619 -134.35899689624222 134.81760440701464 -32.928843852214634 -134.35899689624225 134.81760440701464 -71.321962290584338 -0.00015178740921356753 -4.9201467160328229e-05 7.0296514741566515e-05 -99.683127169874595 1.3923585201469635e-09 4.2978431924467481e-10 2.5852185121522098e-06 0.018463006502854179 -5.6781983503272814e-08 -3.8234233939313046e-08 8.5816445339338742e-08 0.15077303819992458 -32.495446914399992 -133.95681332000001 137.60295016000006 48.530522504776933 0.0000000000000000 0.0000000000000000 0.0000000000000000 0.0000000000000000 3.1369152243173470 3.2775421248393051 1.1405895498957390 1.0689606832353005 867.74533597082666 867.74533007426760 1.0679105671661933 
-28.810515404350710 -136.85990460787059 137.64111776052553 -28.810515404350721 -136.85990460787065 137.64111776052553 -100.95280843407338 0.00011127177841616104 0.00022239577646621090 4.6753214365110364e-05 -132.27142141443235 1.2603622173701370e-09 4.5002346293898664e-10 2.4771457081129711e-06 0.0071714347074073133 4.3569943806966394e-08 6.4794491859597867e-09 2.8760755705954416e-09 -0.020545637017727270 -28.418203856399998 -136.43877710800004 140.31002455199999 44.353383947079159 0.0000000000000000 0.0000000000000000 0.0000000000000000 0.0000000000000000 3.1214192465649968 3.2460383239447399 1.1246429342800570 1.0622855909619511 848.80788881834621 848.80789110285707 1.0604934215068409 
-27.144052018026649 -129.86991673045668 141.33162033413220 -27.144052018026638 -129.86991673045668 141.33162033413223 -196.29856126069717 1.7733910652369733e-05 0.00016121803989314071 4.3400848661014074e-05 0.0000000000000000 1.2069503313449914e-09 3.9346104152571120e-10 2.3358880110180284e-06 0.0026931482560782014 -3.2383254943336392e-08 9.5995540404637400e-09 -1.2811227556504011e-08 0.0000000000000000 -26.768365491316434 -129.50173712462359 143.84833436668455 49.139845408488213 0.0000000000000000 0.0000000000000000 0.0000000000000000 0.0000000000000000 3.1346725892812013 3.2737502180097380 1.1391035390028155 1.0653511880901299 1230.3408288230830 1230.3408290008304 1.0672652641256344 
-40.578473322406587 -65.355566062896315 151.87131378580187 -40.578473322406587 -65.355566062896301 151.87131378580187 -418.34288564209754 0.00040999229616578924 1.6838496826324856e-05 -0.00067016158760189895 -188.27121194798698 1.6375278494296097e-09 -1.2877865440685810e-10 1.9324706386214530e-06 0.036839248134552402 1.8694404430310980e-07 2.3652115889045281e-08 -2.7204692752619309e-07 0.16985166500466789 -40.068761925200000 -65.476070995999990 153.95338104800004 156.95717166164070 0.0000000000000000 0.0000000000000000 0.0000000000000000 0.0000000000000000 3.1506392964951013 3.3063073276142791 1.1557019799161432 1.0645440280300069 1354.8114924877152 1354.8114887638480 1.0751518051036713 
-53.060997832395984 -59.490847150968321 146.98003565141431 -53.060997832395977 -59.490847150968314 146.98003565141428 -506.31895457012484 0.00051510679479231582 0.00038054113103269525 -0.0014236202055582755 -279.11455347557563 2.0375965498198312e-09 -1.7624890435996574e-10 2.1196892081576379e-06 -0.090796280174714569 -5.1508775308621323e-07 -9.7734311738295288e-08 5.6706925204034767e-07 -0.19610064251917872 -52.426757905599978 -59.655776269200025 149.26381449600007 118.05125250056595 0.0000000000000000 0.0000000000000000 0.0000000000000000 0.0000000000000000 3.1353479205989410 3.2748915307820377 1.1395726908778419 1.0634982864716196 1592.8390689346149 1592.8390802045978 1.0674756501399132 
-35.633294419821787 -65.913491418162110 142.53239589491312 -35.633294419821780 -65.913491418162124 142.53239589491315 -845.18105544985463 -0.00016118898311315779 0.00023854636640280663 -0.00070475230432582095 -901.24449234086148 1.4790355745697423e-09 -1.2426581985636178e-10 2.2899271083787198e-06 0.039326615507548519 4.9354526346397448e-08 -7.7968139865150507e-08 1.0082263628566876e-07 0.033929547467737908 -35.172917262399999 -66.029770167599992 144.99959110400002 155.12084301790807 0.0000000000000000 0.0000000000000000 0.0000000000000000 0.0000000000000000 3.1089844425541604 3.2210493172902894 1.1120836487294297 1.0570538061574035 2466.3090260591266 2466.3090265835849 1.0544689858589817 
-51.026774290598865 -66.478126447224156 139.61600630138565 -51.026774290598865 -66.478126447224199 139.61600630138568 -873.37907739936963 0.00028711581963475796 0.0010842042082400338 -0.0019965879390438767 0.0000000000000000 1.9723959271411573e-09 -1.1969103486109134e-10 2.4015548536482356e-06 -0.044397100315503556 -3.8942348788002345e-07 -8.8230629116099890e-07 2.6177003151402978e-07 0.0000000000000000 -50.412828244765279 -66.590128188430739 142.20347059834828 136.07757377940416 0.0000000000000000 0.0000000000000000 0.0000000000000000 0.0000000000000000 3.0746662282408095 3.1477700510963178 1.0730845755325229 1.0461032781709252 2159.9611186905186 2159.9611306005631 1.0359124700510487 
-95.618522399987810 -159.30791829585124 72.261779130631524 -95.618522399987810 -159.30791829585127 72.261779130631538 -602.95321605335062 -0.00018061017787370130 2.4433799238127548e-05 -0.00019178154038026159 -640.01524713991137 3.4015687072619372e-09 6.3175586983987841e-10 4.9796057091100474e-06 -0.00093718451421120430 -2.8352409486042209e-09 2.5161773372420868e-09 -2.1227563979173742e-09 0.00059791415565182862 -94.559718839999974 -158.71675115199997 77.626866652000004 109.98746742214213 0.0000000000000000 0.0000000000000000 0.0000000000000000 0.0000000000000000 3.1231572801830860 3.2497267682541708 1.1265965161810008 1.0615641856835056 1816.5606148593640 1816.5606567082575 1.0614131393315629 
-90.691792851191039 -159.05566154055029 77.280222019789250 -90.691792851191011 -159.05566154055029 77.280222019789250 -439.52878250228713 -0.00033671733639051559 0.00043918830899920147 -0.00013354900959478786 -348.22661886030045 3.2436637958932475e-09 6.2970084702129725e-10 4.7875197566327179e-06 -0.00078515714431104497 -7.9961993945419306e-10 -3.6465791963612041e-09 -6.9077023422578076e-10 0.0016717919448156102 -89.682139475999989 -158.46640519600001 82.438353807199988 112.88451412247700 0.0000000000000000 0.0000000000000000 0.0000000000000000 0.0000000000000000 3.1232964339260358 3.2499552726847316 1.1266853396289613 1.0615641856835039 1399.1756601798154 1399.1762991779881 1.0614520530808991 
-103.85079721882809 -155.50641005106269 81.630244974374435 -103.85079721882811 -155.50641005106266 81.630244974374406 -593.18319070939151 -1.7573494695188523e-05 0.00014545051151793796 -0.00010361390679575717 0.0000000000000000 3.6654194263130435e-09 6.0096605469794884e-10 4.6210182524930588e-06 -0.0021378023486293344 -2.4469417931869633e-09 -2.8475341999377895e-09 6.8062598580024933e-10 0.0000000000000000 -102.70986659571734 -154.94403864466588 86.608986019839278 111.02505284862640 0.0000000000000000 0.0000000000000000 0.0000000000000000 0.0000000000000000 3.1232763064764364 3.2499429354155995 1.1266924194937216 1.0601328281727607 1808.7010176522722 1808.6998318443925 1.0614561232613093 
-101.52479052324910 -167.82963085423765 78.564923194064050 -101.52479052324908 -167.82963085423765 78.564923194064050 -445.55368794418314 -0.00024309387413202092 0.00020903644491999005 -0.00035273616915121255 0.0000000000000000 3.5908763879044518e-09 7.0071515256842076e-10 4.7383465311412465e-06 -0.0014903911130086150 1.1229478741912544e-09 -1.2806316914988159e-09 2.7944328024135289e-09 0.0000000000000000 -100.40706467681501 -167.17391327890167 83.670075146830683 105.53983917324770 0.0000000000000000 0.0000000000000000 0.0000000000000000 0.0000000000000000 3.1243404815140443 3.2522332992949847 1.1279218001006088 1.0611986941148142 1396.0138632256740 1396.0140090578329 1.0620355961502737 
-115.88504932834239 -99.947373177891038 92.022071710048692 -115.88504932834236 -99.947373177891009 92.022071710048721 -356.08725845775450 -4.5615953649219515e-06 -4.4293275038412622e-05 7.8844181160948201e-05 -330.50736463135047 4.0511131255138721e-09 1.5124179686409889e-10 4.2232606265457670e-06 -0.0072644059371417226 -7.9989417294642899e-09 -1.2317517773075640e-08 -3.3620647816178532e-08 -0.0042020503404215795 -114.62406224400000 -99.805851428000011 96.572263865600007 85.211636250682801 0.0000000000000000 0.0000000000000000 0.0000000000000000 0.0000000000000000 3.1239730484247583 3.2513754284615026 1.1274299237558760 1.0619643842665238 1293.6719896899901 1293.6759009842992 1.0618032271910460 
-112.31291274589370 -91.172697139392739 95.828030415446747 -112.31291274589374 -91.172697139392753 95.828030415446761 -367.31944628669851 4.0004522999259181e-05 3.0176025889885369e-05 0.00018567281159252727 -401.11113071601636 3.9366362530879329e-09 8.0212059216933085e-11 4.0775837195639042e-06 -0.018327821384554500 2.1469317656512421e-08 5.5111164532689864e-08 -6.9161504296192364e-09 -0.016848717578793755 -111.08756211600000 -91.097641973600034 100.22126851279998 99.535403830130534 0.0000000000000000 0.0000000000000000 0.0000000000000000 0.0000000000000000 3.1222030455576619 3.2474962596571806 1.1253157170960040 1.0619269457220561 1356.9701806733976 1356.9755068265035 1.0608096516226253 
-114.14800599333381 -97.780916117460350 104.34479641377236 -114.14800599333377 -97.780916117460336 104.34479641377237 -342.02838400487502 4.3149417708947763e-05 0.00018415926173778364 -0.00011864123747060293 -423.29149111764104 3.9954518721296850e-09 1.3369738649515741e-10 3.7515959352418804e-06 -0.011399888136710742 -7.9705999034248294e-09 -2.5955592590312828e-08 1.7132069525145607e-08 -0.0010061330094098303 -112.90434805199999 -97.655804887999992 108.38681131359999 128.09762094244454 0.0000000000000000 0.0000000000000000 0.0000000000000000 0.0000000000000000 3.1210705179586902 3.2453620129247160 1.1243181564316340 1.0627952726364163 1394.8727792905654 1394.8745395376061 1.0603615535098885 
-108.34038609187357 -104.01352340977149 96.171073685436752 -108.34038609187351 -104.01352340977154 96.171073685436724 -374.02704329434420 -4.7499999073399782e-05 -0.00011379264020786303 0.00013613194984428165 0.0000000000000000 3.8093065507505131e-09 1.8415136082694519e-10 4.0644533942923999e-06 -0.012392370188358447 2.7488990342985490e-08 -2.6938392149821066e-09 2.0112707993271596e-08 0.0000000000000000 -107.15466629968294 -103.84120130723400 100.55016500991876 102.24201981555134 0.0000000000000000 0.0000000000000000 0.0000000000000000 0.0000000000000000 3.1226218884251247 3.2488163050644103 1.1262226198245413 1.0621145827560914 1320.0463207778764 1320.0214276287033 1.0612298408996492 
-27.403542683663279 -115.49911712736365 99.112742906578362 -27.403542683663293 -115.49911712736365 99.112742906578333 -16.350678170679569 0.00019622117769929642 -0.00011185104536436413 -0.00011334512370716557 0.0000000000000000 -2.0575957604195225e-05 3.7329699221535355e-05 9.0345301462267231e-06 -0.012375034427489728 -1.1893909911212286e-08 1.7299790140139034e-07 -1.4205947001579290e-07 0.0000000000000000 -26.889884864405381 -115.37486796036181 103.37575244326078 96.382960025775517 0.0000000000000000 0.0000000000000000 0.0000000000000000 0.0000000000000000 3.1760615588329002 3.3594572318865370 1.1833966007501722 1.0822040151337669 911.05415459596122 911.05415393738826 1.0878381054262762 
-110.77837590616275 -103.79242065314223 150.03985505397634 -110.77837590616272 -103.79242065314223 150.03985505397628 -115.21818675774691 -2.7538628872114075e-05 -6.3105712751207623e-05 -5.3195775689013504e-05 -118.62452149350430 3.8874471558481005e-09 1.8236745447097746e-10 2.0025715432581137e-06 0.0053626633274427692 2.3416608228641529e-09 -7.0285458391393622e-09 2.6232134227568917e-08 0.012592011676802241 -109.56833416800004 -103.62177336400003 152.19744990400002 70.302883591683823 0.0000000000000000 0.0000000000000000 0.0000000000000000 0.0000000000000000 3.1165763275301992 3.2360825365324151 1.1195282370125208 1.0618524938593483 860.37485206131964 860.36995907040534 1.0580852548860309 