# For a description of the Tecplot format see the Tecplot User's guide.
#
Variables=x,y,z,s_u,s_v,s_w,s_p,mono_f_vel_u,mono_f_vel_v,mono_f_vel_w,const,u_nu,v_nu,w_nu,p_nu,x_nu,y_nu,z_nu,const,u_ref,v_ref,w_ref,vol_ref,x_ref,y_ref,z_ref,const,I1,I2,I3,J,p1,p2,p3
Zone f=fepoint, n=356, e=1130, et=brick, c=black
-67.7197 -97.8336 79.6313 -67.719696554435401 -97.833585351448150 79.631292416449057 -1812.3070909228470 -5.3781679432950133e-14 1.1710511684117306e-14 6.0876158147937877e-13 1.2377152010045488e-27 3.8333105578658425e-09 1.5575718492755186e-10 2.9485231500814280e-05 6.6429891555552709 2.0494661176245363e-16 8.1357000091264837e-17 -1.1048686400711026e-15 -5.5937811050175073e-29 -65.754724465942431 -97.517594547729473 92.373562431030237 2074.8615187338191 0.0000000000000000 0.0000000000000000 0.0000000000000000 0.0000000000000000 3.3355821275851452 3.6986308946748201 1.3638109083554959 1.1668554589033493 4678.0041896899629 2894.0934914758009 1.1677875242869826 
-77.969517913323543 -131.51858875455005 64.579441504838172 -77.969517913323529 -131.51858875455008 64.579441504838186 -560.94445792741499 -9.6236918785422786e-14 -6.9237085105745717e-15 1.4321723932674263e-14 233.24835734620785 4.3355279366608102e-09 4.7240611422694201e-10 3.3101423621673121e-05 0.30726290551398439 2.3571445843858311e-17 5.9172569905966956e-16 -3.8238631098944216e-16 -12.203313239435991 -75.747104543999981 -130.56019973999997 78.884476808000016 2128.8259272129790 0.0000000000000000 0.0000000000000000 0.0000000000000000 0.0000000000000000 3.3359704678908599 3.6994863723636993 1.3641837379171162 1.1668554589033502 1940.7828276981415 2685.1921477240967 1.1679094589569987 
-65.327154156724234 -122.58259101770095 56.050023906419327 -65.327154156724234 -122.58259101770093 56.050023906419320 -20.864092035606873 5.7324001864527353e-14 6.7049730375210355e-14 -5.9334704126604031e-14 1124.7242858896550 3.7160743371345002e-09 3.8841729832483907e-10 3.5150607658351873e-05 0.031754187937839823 -3.4922964363552719e-18 -3.7453194184130730e-16 2.7747647151308888e-16 2.3822105452463158 -63.422274742800013 -121.79461816400000 71.240629883439979 1237.7701333319521 0.0000000000000000 0.0000000000000000 0.0000000000000000 0.0000000000000000 3.3394906543534821 3.7011131971261659 1.3619273043932785 1.1668554589033497 626.42193969796278 799.70751394033402 1.1670346500864424 
-57.869896121764548 -133.06747461444425 62.076513186142734 -57.869896121764548 -133.06747461444428 62.076513186142734 -407.58811775246562 1.1228587964266432e-13 -6.1853575156147042e-14 -1.5393434771272937e-14 334.91664381046905 3.3506832863849922e-09 4.8697135213160426e-10 3.3702749647090968e-05 0.22179185530838511 -3.5561471357447733e-16 7.4962944574504078e-16 -4.5437432272905734e-16 -11.433118244972333 -56.152318124399997 -132.07954718800002 76.641416164000006 2090.5778096190215 0.0000000000000000 0.0000000000000000 0.0000000000000000 0.0000000000000000 3.3276397804237279 3.6848419463603026 1.3581187798528462 1.1668554589033493 1319.8632547679952 2273.0071765980683 1.1653391218945228 
-126.33505996960039 -110.95360267976805 76.098345566780267 -126.33505996960039 -110.95360267976807 76.098345566780267 -1008.4512649695209 -8.8727211584101409e-15 -1.7396866066139619e-14 6.4854394212360258e-14 -303.44592142893504 6.7053380625736719e-09 2.7909186073316050e-10 3.0334018443767257e-05 0.20607499696129414 -6.4555105350202089e-19 3.1095727462021094e-17 -8.2390068848525738e-17 -0.27945527409335430 -122.89786571200003 -110.38740333199999 89.207425400000020 2092.2379289329847 0.0000000000000000 0.0000000000000000 0.0000000000000000 0.0000000000000000 3.3378370527903582 3.7001921101603381 1.3628464733946777 1.1668554589033491 3011.7229997170184 3155.2150196905554 1.1674256367502784 
-126.20371078474862 -129.42253068738569 80.868081098656518 -126.20371078474861 -129.42253068738569 80.868081098656518 -1081.3210779546041 6.6616229934205859e-15 -3.7192102877446593e-14 -3.0614329699855358e-15 -1717.0624708693649 6.6989067626366242e-09 4.5271120185930148e-10 2.9188094273990828e-05 0.12798456078383688 7.9788288949057600e-18 -1.4144497455669244e-16 8.3396766336510221e-17 -0.90679210957572554 -122.76981557999994 -128.50411506799998 93.481940963999989 2295.0048277193882 0.0000000000000000 0.0000000000000000 0.0000000000000000 0.0000000000000000 3.3392781667549283 3.7010996183099114 1.3621240573308977 1.1668554589033500 4436.8201651575928 4418.8362666653275 1.1671092287798905 
-89.854879131645603 -120.29756629248088 97.081192011206184 -89.854879131645660 -120.29756629248092 97.081192011206142 -858.32638871030065 1.4505957115672240e-13 1.9442036452780669e-13 -1.3969028420057727e-13 2.5407414778507212e-28 4.9178843219976898e-09 3.6692870963861424e-10 2.5292910606822258e-05 1.1899896427675196 -2.4629898891910640e-16 -4.4174165353058896e-17 -1.1274102559513367e-16 -1.4271185719930695e-29 -87.333945182495114 -119.55317056945796 108.01171823852533 1853.2119812635015 0.0000000000000000 0.0000000000000000 0.0000000000000000 0.0000000000000000 3.3308270100337483 3.6917686660080729 1.3621380523637259 1.1668554589033497 3161.8714510899435 3338.3631410847888 1.1670992243518079 
-125.30821673698310 -119.68194674579235 95.994282329450002 -125.30821673698311 -119.68194674579237 95.994282329450002 -452.90166308884756 -1.7394051264084379e-14 -4.0967512443459509e-14 -1.7051178195260677e-13 -497.90347007676519 6.6550280841681797e-09 3.6114222723426792e-10 2.5554039567055042e-05 0.068966209850052362 5.0860713193226666e-18 5.1211849143564497e-17 5.0916616011133025e-17 0.73335964658740016 -121.89681335200000 -118.94929134799999 107.03765745040002 1571.7251237143605 0.0000000000000000 0.0000000000000000 0.0000000000000000 0.0000000000000000 3.3389037343094823 3.7004828552656979 1.3617667684546002 1.1668554589033500 2420.6282723339082 2552.5013295975373 1.1669775977561978 
-45.584513977225242 -165.22552817454658 114.53108593474943 -45.584513977225242 -165.22552817454655 114.53108593474943 -79.275962105951862 -1.8985515065745642e-15 3.0405654149665670e-14 -2.2571680732182384e-14 0.0000000000000000 2.7487223608346767e-09 7.8928819036150344e-10 2.1100591048650589e-05 0.10722392067158243 6.1032022705774013e-18 -5.3363651700634587e-17 3.1729738915215919e-17 0.0000000000000000 -44.175503749389662 -163.62432261291502 123.64986896362305 1288.7765825848380 0.0000000000000000 0.0000000000000000 0.0000000000000000 0.0000000000000000 3.3723999704636038 3.7821146204215257 1.4108247316896902 1.1795989838722980 1765.6199025431708 2709.4745617894446 1.1877801959232419 
-16.147888342059808 -145.08181840510133 128.38231526412596 -16.147888342059812 -145.08181840510133 128.38231526412596 -154.81401515060872 -1.5680867624494259e-15 -2.7959044426141456e-14 -2.8930983924604060e-14 292.91500485564217 1.3063859438666723e-09 5.9992988354906629e-10 1.7772847073160847e-05 0.057207150927201432 -3.3641119292455220e-17 2.1846154938728118e-16 -7.2317917870864826e-17 -0.74607772812968354 -15.478227839600008 -143.86476845600004 136.06298808800005 1207.7015194609139 0.0000000000000000 0.0000000000000000 0.0000000000000000 0.0000000000000000 3.3354325160717746 3.6945515196099858 1.3595720831897862 1.1702734239252934 2369.6688627674002 2268.0312777857471 1.1659694396850673 
-45.584513977225242 -165.22552817454658 131.98097985829264 -45.584513977225242 -165.22552817454655 131.98097985829270 -242.88890042931229 2.1004826404404290e-14 -3.3102962414460484e-15 -3.0434512308873150e-15 0.0000000000000000 2.7487223608346771e-09 7.8928819036150334e-10 1.6908271497584341e-05 -0.049648903234898706 -9.5843210038375988e-19 6.2320550411265109e-17 -1.5450971783494703e-17 0.0000000000000000 -44.175503749389669 -163.62432261291511 139.28801968872074 2260.0113226803110 0.0000000000000000 0.0000000000000000 0.0000000000000000 0.0000000000000000 3.3335126989619246 3.6907473810953806 1.3577052165623069 1.1724501918663508 2182.0587694750425 2091.1107799737015 1.1653119677238282 
-6.3042956664976044 -163.01783245289255 122.09158517071697 -6.3042956664976053 -163.01783245289249 122.09158517071700 -571.97815813414468 3.1437627484459198e-14 -1.5684359114013665e-15 4.7607058259603015e-14 -723.41924346488474 8.2406881318775060e-10 7.6851902619523581e-10 1.9284188681467640e-05 0.011009891798463314 3.3840581047866062e-18 -1.9567936625577862e-17 6.3902670851618901e-18 -0.081330348263534941 -5.8818733370400009 -161.45872929999999 130.42539591680000 1840.5999298976626 0.0000000000000000 0.0000000000000000 0.0000000000000000 0.0000000000000000 3.3328608340459187 3.6889852265343261 1.3565677715667552 1.1668554589033500 2736.4471599330504 2608.2429692440132 1.1647213577955924 
-10.303537950002950 -107.61143120178309 180.74500438559889 -10.303537950002950 -107.61143120178306 180.74500438559886 -217.31272789997644 2.4265940479318953e-15 1.5666375060564828e-14 -4.4624904236584761e-15 -207.09806785959429 1.0200245648128714e-09 2.4767210504705872e-10 5.1927634210358065e-06 0.0011611283666646053 8.2448231190071299e-19 1.5133453757126538e-17 -1.2773557417983310e-17 -0.33994027699817325 -9.7806680107999995 -107.10896956400003 182.98909712000000 1021.2952016557671 0.0000000000000000 0.0000000000000000 0.0000000000000000 0.0000000000000000 3.3370734123988868 3.6986077590524848 1.3620294120687133 1.1668554589033526 2009.6784688033588 1995.7842509507122 1.1670602655958400 
-18.289210078221352 -109.16940789058435 192.35526460641950 -18.289210078221348 -109.16940789058435 192.35526460641950 -242.85067068466833 -2.4327910153866846e-14 2.8372421327710001e-14 1.2114065441042544e-14 -297.70221027279109 1.4113066826304530e-09 2.6232926941816009e-10 2.4034100469805253e-06 0.0021127695442590311 1.4023645713340173e-18 5.5759505234363862e-18 -1.0987926447424781e-17 -0.083872002764593209 -17.565766725200003 -108.63723447200002 193.39391677600000 1230.2822850381203 0.0000000000000000 0.0000000000000000 0.0000000000000000 0.0000000000000000 3.3371693626655032 3.6986767894336792 1.3619954866799981 1.1668554589033486 2171.4013518384590 2159.8936275229030 1.1670353231968646 
-45.584513977225242 -120.29756629248088 166.88076770537918 -45.584513977225342 -120.29756629248084 166.88076770537918 -385.15166330436051 -1.4001726549102641e-14 2.1301397081277727e-14 2.9439969327546664e-14 0.0000000000000000 2.7487223608346763e-09 3.6692870963861429e-10 8.5236324061099822e-06 0.064613666065766143 4.9680570362130057e-18 -3.1674138496872791e-18 2.4287131873560644e-17 0.0000000000000000 -44.175503749389591 -119.55317056945772 170.56432113891603 1872.3464537223574 0.0000000000000000 0.0000000000000000 0.0000000000000000 0.0000000000000000 3.3338876518981451 3.6929125890702030 1.3596006989284324 1.1668554589033495 2434.4251370300462 2476.9250319365256 1.1660804659371611 
-9.8431463276358961 -125.23567766452948 187.30123970950601 -9.8431463276358944 -125.23567766452948 187.30123970950601 -327.32511729803900 1.8522528939082017e-14 -1.0682782778207799e-13 -5.2050636607381323e-14 -399.24618021143846 9.9746666482047885e-10 4.1335557199317918e-10 3.6176344693217284e-06 0.0020221408605536162 2.4983936700301102e-18 -3.2987064823069372e-18 -3.9506227815267689e-19 0.043667436888490951 -9.3318398883999993 -124.39710846400000 188.86462832000004 1016.3527334425750 0.0000000000000000 0.0000000000000000 0.0000000000000000 0.0000000000000000 3.3373104315185662 3.6988924465065689 1.3620646242125345 1.1668554589033509 2582.7328221607363 2574.8774071285993 1.1670565489112354 
-45.584513977225242 -165.22552817454658 97.081192011206184 -45.584513977225242 -165.22552817454655 97.081192011206156 -301.72662772893472 -2.6065714629028934e-14 -3.9514606492295476e-15 2.6914892692158920e-14 9.2875658360811393e-27 2.7487223608346767e-09 7.8928819036150344e-10 2.5292910592611410e-05 0.0078103417155848294 -2.4373325971583548e-18 6.8326978748602602e-17 2.6199489563156242e-17 -4.6283395158589389e-28 -44.175503749389662 -163.62432261291499 108.01171823852535 1450.3671205666894 0.0000000000000000 0.0000000000000000 0.0000000000000000 0.0000000000000000 3.3419566233658875 3.7084555693292325 1.3669829730869845 1.1716566444863088 824.72848588529200 1518.8821261472260 1.1691633145506233 
-63.000086003305327 -162.50415277317475 72.522432100352376 -63.000086003305327 -162.50415277317472 72.522432100352390 -1927.2349864980295 -1.0080358029778538e-13 -2.6429269495533556e-13 -5.8816229515031949e-14 773.30110000161937 3.6020511018364232e-09 7.6369266466258533e-10 3.1193128076978383e-05 0.019001888668484360 -2.9650021683878932e-18 -4.5787129052299529e-17 -3.7262849444057699e-18 -0.17937710145239050 -61.153654769600031 -160.95484587600001 86.002782780800032 1645.6757988676138 0.0000000000000000 0.0000000000000000 0.0000000000000000 0.0000000000000000 3.3111344149486990 3.6446478921898149 1.3340194836202732 1.1618560540939438 4921.6447772881265 4858.9050966629475 1.1550202978082280 
-45.643182287451772 -169.68791716141877 69.480175375845050 -45.643182287451772 -169.68791716141874 69.480175375845064 -4050.1065019352895 1.5719296155353789e-13 -5.0188379145911294e-13 -7.6734174040532631e-14 -241.43569209706308 2.7516011691375293e-09 8.3121864946633650e-10 3.1924027211971406e-05 0.023812706587505898 -8.5954077929167035e-18 1.4795992644395641e-17 -1.1621034996192013e-17 -0.24944960324879617 -44.232698507600013 -168.00161050399998 83.276389748800028 1737.4139093181343 0.0000000000000000 0.0000000000000000 0.0000000000000000 0.0000000000000000 3.3392383358023441 3.7032539553052364 1.3645221267987997 1.1668554589033495 8622.4935017480620 8507.4443973422876 1.1681262678380688 
-45.584513977225242 -187.68950911557940 97.081192011206184 -45.584513977225242 -187.68950911557934 97.081192011206099 -3623.3144887309973 3.1863026944739120e-14 -2.8329683939204646e-13 -3.5017450344879359e-13 1.0268572830083458e-27 2.7487223608346763e-09 1.0004468364854802e-09 2.5292910606822261e-05 0.022212306657439132 -1.4911958303351111e-19 1.0647439820420174e-18 -2.0631160519174800e-18 -5.7345440270068982e-29 -44.175503749389676 -185.65989863464350 108.01171823852533 1616.4576808433910 0.0000000000000000 0.0000000000000000 0.0000000000000000 0.0000000000000000 3.3320906965955608 3.6881177703159458 1.3565053428077929 1.1658498155131503 8145.5856168977352 8143.8715541903102 1.1646810832801788 
-89.854879131645603 -142.76154723351374 131.98097985829264 -89.854879131645660 -142.76154723351374 131.98097985829270 -323.94283198422823 8.0333865653585562e-15 -3.8087178219845868e-15 1.3807915465758609e-14 0.0000000000000000 4.9178843219976889e-09 5.7810201070651591e-10 1.6908271497584337e-05 -0.12153070398181924 -1.4188970807616652e-18 -9.7436291611937976e-17 -6.6247231095827290e-17 0.0000000000000000 -87.333945182495100 -141.58874659118649 139.28801968872074 1877.7986991733408 0.0000000000000000 0.0000000000000000 0.0000000000000000 0.0000000000000000 3.3654793079115146 3.7581265180296590 1.3927617058328747 1.1769962151761106 2451.5707094648765 2348.1474309145265 1.1801749673100161 
-67.719696554435430 -165.22552817454658 131.98097985829264 -67.719696554435387 -165.22552817454655 131.98097985829273 -307.30499225980054 -5.3185509798019750e-16 5.3260015052004856e-14 6.9792809184568641e-14 3.6891497406672819e-28 3.8333105578658425e-09 7.8928819036150365e-10 1.6908271497584337e-05 -0.050170699624896488 1.6078574338592123e-17 9.8105602997256927e-17 3.8441725054919732e-17 -1.2323378646763111e-29 -65.754724465942374 -163.62432261291517 139.28801968872077 2018.1238718776010 0.0000000000000000 0.0000000000000000 0.0000000000000000 0.0000000000000000 3.3372369774769353 3.6995955032827985 1.3627854866175251 1.1778849115257852 2153.4469595778651 1998.3245796775013 1.1673988144648397 
-89.854879131645603 -165.22552817454658 114.53108593474943 -89.854879131645660 -165.22552817454655 114.53108593474950 -365.80827876079172 -6.0184798135313977e-14 2.0360573266753147e-14 1.1373246758477496e-14 0.0000000000000000 4.9178843219976898e-09 7.8928819036150344e-10 2.1100591048650585e-05 0.0048227377911304751 5.2224256421064210e-18 -1.8685224022388301e-17 -2.0672403397750202e-17 0.0000000000000000 -87.333945182495114 -163.62432261291505 123.64986896362312 1549.0027140339625 0.0000000000000000 0.0000000000000000 0.0000000000000000 0.0000000000000000 3.3343283761252414 3.6934114508294020 1.3598286933121364 1.1685679416565011 1827.6768034132549 3346.2690333454238 1.1661353298379522 
-89.854879131645603 -142.76154723351374 114.53108593474943 -89.854879131645660 -142.76154723351374 114.53108593474951 -332.95221793206332 -1.4695577113516697e-14 -1.6084105721156592e-14 4.3537473113330519e-14 0.0000000000000000 4.9178843219976898e-09 5.7810201070651601e-10 2.1100591062861440e-05 0.14885856552460833 -9.9995124211734796e-17 -1.5287295718671702e-16 2.0135739324837820e-16 0.0000000000000000 -87.333945182495086 -141.58874659118649 123.64986896362313 1389.1126189879024 0.0000000000000000 0.0000000000000000 0.0000000000000000 0.0000000000000000 3.3571098311938532 3.7399997627528765 1.3822390465646972 1.1785007476552176 2127.0791044242419 3549.2555241992377 1.1759761215880244 
-46.632978072310088 -110.89886632045386 31.062137919172795 -46.632978072310081 -110.89886632045386 31.062137919172798 -2054.9973988435891 9.3747092813617239e-14 2.9540758892835103e-14 -1.1834408347887409e-13 -1494.4763279176830 2.8000952667639467e-09 2.7858426676630188e-10 4.1153922250458670e-05 0.035719448515527732 2.9820002541922794e-18 -5.8644642834153098e-18 3.2706763927382566e-18 0.11531969232613681 -45.197633928000002 -110.33371083599998 48.847122559999995 1069.0094105005942 0.0000000000000000 0.0000000000000000 0.0000000000000000 0.0000000000000000 3.3366952824250595 3.6978111812352008 1.3616128897271893 1.1668554589033495 5685.8622194804775 5691.5616199740380 1.1668811690632206 
-58.866235792788480 -99.172787929793387 28.137387961105762 -58.866235792788515 -99.172787929793373 28.137387961105780 -1488.1348032393139 1.2475267696736149e-14 1.5160035811021875e-14 -5.0285889983624574e-14 -326.63184321786508 3.3995006809561801e-09 1.6835577376639321e-10 4.1856590499378399e-05 0.034970225803427853 -2.7846216545108857e-18 -6.2625383658448764e-19 5.3907308548899344e-18 -0.21064477981922633 -57.123633070400032 -98.831257531200038 46.226036100800002 1475.5774262919704 0.0000000000000000 0.0000000000000000 0.0000000000000000 0.0000000000000000 3.3365972536563318 3.6976447964501102 1.3615487042896928 1.1668554589033495 4132.0895707377795 4139.7094931404463 1.1668540929138518 
-61.959947555279484 -106.05986593968471 40.450689203127922 -61.959947555279513 -106.05986593968470 40.450689203127922 -1111.4546554489566 -3.6642258510988639e-14 3.1975911282516464e-14 -1.1178011672482139e-14 -1060.9802221961397 3.5510849816233758e-09 2.3309665309056982e-10 3.8898332203274329e-05 0.035840078503626742 2.5225920625101864e-19 1.4639133481651030e-17 -1.5555935953482567e-17 0.47501751195899727 -60.139641125599979 -105.58699381199996 57.260903223199996 1724.6135661994952 0.0000000000000000 0.0000000000000000 0.0000000000000000 0.0000000000000000 3.3363704939532899 3.6973735391773288 1.3615229114359939 1.1668554589033497 4021.7417027868960 3976.7845742828281 1.1668445157739975 
-20.176876077003300 -88.249267053636828 40.939626770775675 -20.176876077003296 -88.249267053636828 40.939626770775689 -1410.6036679321983 3.6932840625512337e-15 -3.9891561696108657e-14 -1.2804801576422237e-13 -1272.3882588975414 1.5037986411670088e-09 6.5665251014479509e-11 3.8780865441623291e-05 0.032951842210474785 -2.0447977944351805e-18 6.5324034275246591e-18 1.8007887019513704e-17 -0.23359331101792857 -19.406020858399991 -88.116056368799974 57.699076624800000 1439.6451283969650 0.0000000000000000 0.0000000000000000 0.0000000000000000 0.0000000000000000 3.3363898206414575 3.6972493348561035 1.3613663526846802 1.1668554589033500 4050.8049558835987 4054.8512511266676 1.1667780073449820 
-60.561724638916871 -180.48045354696470 64.435167160845282 -60.561724638916878 -180.48045354696475 64.435167160845268 -9586.7096573924791 2.1806380024326340e-14 -3.0211273514053019e-13 -3.2850496885430317e-13 -10364.011400931096 3.4825788919334851e-09 9.3269170164944626e-10 3.3136085384910530e-05 0.044762017648772252 -3.7077687499728512e-19 5.2595032751029096e-19 1.4179907008007335e-18 0.13667893335569309 -58.776536899199989 -178.58832514800000 78.755181813599989 1584.4809985467919 0.0000000000000000 0.0000000000000000 0.0000000000000000 0.0000000000000000 3.3406107674874708 3.7061096593138454 1.3660122978582230 1.1668554589033497 19149.984705102186 19193.303931771075 1.1687767300696721 
-76.652716404799776 -186.95848253321194 57.149293462434464 -76.652716404799776 -186.95848253321194 57.149293462434464 -7221.4529594915048 6.8284780952755930e-13 -6.6441417525989251e-13 -2.4145353852465931e-14 -6511.0703853953246 4.2710071035401143e-09 9.9358388183645729e-10 3.4886509247655795e-05 0.035408260550756229 1.8400487841927373e-19 1.1660012751176598e-17 -1.6474418150056134e-19 0.13125610981816635 -74.463376691600018 -184.94281327599995 72.225767276240006 1182.3928641350060 0.0000000000000000 0.0000000000000000 0.0000000000000000 0.0000000000000000 3.3388638480890331 3.7023588559971099 1.3639943188799728 1.1668554589033504 14569.001147540861 14552.469178870580 1.1679045207740357 
-71.804337943766186 -214.12216638636562 73.180211311024181 -71.804337943766186 -214.12216638636571 73.180211311024195 -9585.2042509540315 -6.0991136997842433e-15 7.7500119745613754e-14 -4.8253502006024150e-13 -9526.4863257208744 4.0334375839279346e-09 1.2489240752699970e-09 3.1035097286746804e-05 0.044958272433849984 -8.7491558244626255e-19 8.0578906561978438e-19 -1.3218283872617471e-18 0.12664420825156514 -69.736773305200003 -211.58846536000007 86.592267764799999 1391.6778601551057 0.0000000000000000 0.0000000000000000 0.0000000000000000 0.0000000000000000 3.3345440847533796 3.6934499436556512 1.3594138624811685 1.1668554589033500 19915.428098561792 19932.898394755332 1.1659371979988773 
-89.321378286061801 -209.72373628231412 77.326569284245679 -89.321378286061787 -209.72373628231415 77.326569284245679 -5539.3867984534509 6.5666432230570394e-13 -3.3718624046599533e-13 -2.1150101211491861e-13 -5334.4025346275512 4.8917421224814461e-09 1.2075869193495239e-09 3.0038938930943008e-05 0.030191344116244110 -4.7421836004083350e-18 2.9927145472960328e-18 -1.0427878543637642e-18 0.037886483142267439 -86.813844096400004 -207.27391660800001 90.308128229600001 1955.0875990986240 0.0000000000000000 0.0000000000000000 0.0000000000000000 0.0000000000000000 3.3392632511739389 3.7033808001884672 1.3646423775823613 1.1668554589033502 10802.481887477477 10829.648966633100 1.1681907849376338 
-76.560639966172516 -215.13842536524092 88.874493235875462 -76.560639966172516 -215.13842536524095 88.874493235875462 -6644.0382957438151 -3.5375683931295285e-13 1.0955670626067417e-13 2.7408631279682005e-13 -8431.3476900837468 4.2664882737852849e-09 1.2584844277796492e-09 2.7264561758499894e-05 0.033652811925073613 1.4450210891358421e-18 -2.3043567731220008e-19 1.0764057325396857e-18 0.048320341226356318 -74.373612905599998 -212.58534351999998 100.65708370800000 988.41240310934302 0.0000000000000000 0.0000000000000000 0.0000000000000000 0.0000000000000000 3.3354896551377449 3.6953980896073149 1.3604215287605452 1.1668554589033500 16885.747315132965 16889.338411957142 1.1663819147652574 
-67.719696554435430 -187.68950911557940 97.081192011206184 -67.719696554435387 -187.68950911557934 97.081192011206099 -3246.1301875104305 7.2568795895486686e-14 -2.4288588826593440e-13 -7.2355939664714797e-14 2.8532320859400710e-27 3.8333105578658433e-09 1.0004468364854802e-09 2.5292910606822254e-05 0.021316082086465033 4.9444950463537852e-18 2.2118950163067084e-17 1.1445043733132142e-17 -2.1509043289808521e-28 -65.754724465942374 -185.65989863464350 108.01171823852535 1808.0980320372519 0.0000000000000000 0.0000000000000000 0.0000000000000000 0.0000000000000000 3.3370031054990328 3.6980372385427049 1.3614808319277851 1.1666567034422830 6934.2970132876408 6796.1176641889597 1.1668085830096566 
-85.882518959872698 -210.83157340081129 98.211746810113695 -85.882518959872712 -210.83157340081129 98.211746810113695 -3674.8530250392428 5.7172743132199022e-13 -3.8243467209705931e-13 -5.9497550640516097e-13 -3200.7023000145950 4.7232484590153945e-09 1.2179905972686811e-09 2.5021295940064195e-05 0.020097146701320227 -1.7823693200813496e-18 -1.6642849482712332e-18 -1.4835497474788016e-17 0.095274406304967460 -83.461357431600007 -208.36062644399999 109.02489266960001 1287.0831768928649 0.0000000000000000 0.0000000000000000 0.0000000000000000 0.0000000000000000 3.3382127667017270 3.7013585630679233 1.3636753078549890 1.1668554589033491 8421.7494836748210 8627.2207347425156 1.1677485047288549 
-42.900435924053966 -130.99466993069484 49.928475904535333 -42.900435924053959 -130.99466993069478 49.928475904535340 -1011.2135148382717 4.0194503305435975e-14 -4.2860341965681599e-14 -1.4261648178573617e-14 -1611.8800913026678 2.6172057854267905e-09 4.6749537574442002e-10 3.6621303433292951e-05 0.045036083755480079 3.4551782841095642e-17 -3.1397702996798359e-17 2.2215626848279795e-17 1.5647767825368677 -41.558840772800004 -130.04627243999997 65.754654395919971 2180.9238908936368 0.0000000000000000 0.0000000000000000 0.0000000000000000 0.0000000000000000 3.3382331119241875 3.7005127710912906 1.3627318013332224 1.1668554589033497 3896.6603302865242 3877.8799573725050 1.1673497083852651 
-23.646088097093184 -135.47903229115209 38.938807957362862 -23.646088097093184 -135.47903229115209 38.938807957362862 -1707.2214209842102 -1.9527651933911398e-14 -6.1585141128888566e-14 1.0019680296901013e-13 -2274.3763589095270 1.6737828900659224e-09 5.0964343856207961e-10 3.9261560161207854e-05 0.033187158482262190 9.1570107138986686e-18 7.7215934742772364e-19 -6.4068390030832836e-18 -0.17150299249704762 -22.788097858800000 -134.44511465599999 55.905993737599999 935.86986824075086 0.0000000000000000 0.0000000000000000 0.0000000000000000 0.0000000000000000 3.3354569508247285 3.6953784543106702 1.3604364851464026 1.1668554589033480 4974.1457158559851 4976.5364876652939 1.1663900311054112 
-11.580717830763099 -104.03672588964868 45.860058337910466 -11.580717830763096 -104.03672588964872 45.860058337910466 -1564.4286043545480 5.5300795701400008e-14 -1.2023637916363823e-13 -4.0373492353913451e-14 -1219.1576958812764 1.0826027851962294e-09 2.1407875472334581e-10 3.7598736689403722e-05 0.031418151559640894 -6.9242598585049951e-18 6.9801223916405324e-18 -4.6540958367887149e-18 0.098040977080861610 -11.025769398400001 -103.60243655599999 62.108642139439993 1284.9349949311236 0.0000000000000000 0.0000000000000000 0.0000000000000000 0.0000000000000000 3.3360629995862401 3.6967132522083244 1.3611690361817312 1.1668554589033486 4639.4136507840904 4623.6341749200792 1.1666960650008531 
-30.012138970088969 -141.92108073351446 54.745163596048670 -30.012138970088976 -141.92108073351446 54.745163596048663 -1282.2270961347674 4.4292984525425412e-15 7.3006519106141460e-14 -1.2885632719532403e-13 -668.75418336479572 1.9857061550609956e-09 5.7019411414671595e-10 3.5464099042314956e-05 0.029489380797078038 -1.4764951931603704e-17 2.0680049961555438e-17 6.5833594784436544e-18 -0.45347116797612003 -28.994254794799993 -140.76430841599998 70.071247290159988 2176.9829965296321 0.0000000000000000 0.0000000000000000 0.0000000000000000 0.0000000000000000 3.3397914437286493 3.7041752061815671 1.3648541740605464 1.1668554589033493 4245.7089805396163 4303.1581290397016 1.1682299368268845 
-106.34141330284751 -196.24672596697627 81.491257956229944 -106.34141330284751 -196.24672596697630 81.491257956229930 -1293.9657316329842 -9.3359346430030266e-14 3.9692203227719253e-14 9.4818522166107637e-15 -2147.5370966910573 5.7256963614804590e-09 1.0808864914224612e-09 2.9038376641921104e-05 0.013226574768542589 2.2980358173899384e-18 -1.4892079881170955e-18 4.4392704494849789e-18 0.071076971712342188 -103.40639267600000 -194.05392295999994 94.040416199999996 2662.2783756828549 0.0000000000000000 0.0000000000000000 0.0000000000000000 0.0000000000000000 3.3359250884478153 3.6962405479824763 1.3608077577764919 1.1668554589033491 3476.6774024093388 3442.7000897516186 1.1665391253022677 
-84.905113184267464 -163.87686793814342 63.371436562974822 -84.905113184267506 -163.87686793814336 63.371436562974843 -1587.6517583538234 5.0145882371765623e-14 3.7749363948310114e-14 3.1849051932848738e-14 -2286.8072071630359 4.6753507731978061e-09 7.7659523256556895e-10 3.3391645601454904e-05 0.018183201930792009 3.3127951767590615e-18 6.4491900979596785e-18 -2.2829539305365273e-18 -0.52640997839585613 -82.508500824799995 -162.30138233600007 77.801893530400037 2229.3857910936085 0.0000000000000000 0.0000000000000000 0.0000000000000000 0.0000000000000000 3.3405174288558284 3.7055571015153945 1.3655026564748878 1.1668554589033495 4231.3719071779160 4286.2753204693836 1.1685443129109989 
-28.983134238249782 -125.91356152773915 118.89355941563525 -28.983134238249793 -125.91356152773915 118.89355941563520 -113.89056497342411 -2.8871215743448818e-14 -2.9400607654655859e-14 2.5698148881383267e-14 -3.5721718847978765e-28 1.9352884850221130e-09 4.1972647579768818e-10 2.0052511167989451e-05 -0.15374521713597425 4.7709523994240034e-17 -1.8690064728409710e-16 2.0294700916032249e-16 2.1171953220372635e-29 -27.991095225219734 -125.06206457489009 127.55940664489751 1124.7619503421174 0.0000000000000000 0.0000000000000000 0.0000000000000000 0.0000000000000000 3.3151964930417672 3.6492980083505953 1.3346365259087711 1.1669030419190900 767.57968397574962 793.76772129397034 1.1555938705163979 