# vtk DataFile Version 3.0
vtk output
ASCII
DATASET POLYDATA
POINTS 13516 float
-9.92621 -131.752 182.781
-9.88117 -131.63 182.575
-9.81039 -131.254 181.995
-9.81223 -131.245 181.982
-9.81223 -131.245 181.982
-9.82877 -131.179 181.835
-9.82877 -131.179 181.835
-9.83613 -131.132 181.755
-9.87198 -130.945 181.262
-9.87657 -130.935 181.229
-9.87657 -130.935 181.229
-9.94092 -130.757 180.883
-10.0641 -130.4 180.143
-10.0788 -130.381 180.103
-10.1036 -130.334 179.983
-10.1854 -130.288 179.764
-10.418 -130.025 179.031
-10.4594 -129.968 178.764
-10.4382 -129.865 178.365
-10.4272 -129.828 178.211
-10.4152 -129.799 178.118
-10.3472 -129.649 177.638
-10.3463 -129.64 177.625
-10.3895 -129.368 176.946
-10.5642 -129.095 176.233
-10.5871 -129.058 176.086
-10.6965 -128.945 175.667
-10.7692 -128.917 175.467
-10.8216 -128.861 175.274
-10.9401 -128.72 174.861
-10.9594 -128.682 174.774
-11.0578 -128.56 174.42
-11.1019 -128.476 174.2
-11.1203 -128.438 174.12
-11.1442 -128.382 173.98
-11.2049 -128.269 173.6
-11.2095 -128.26 173.566
-11.2095 -128.26 173.566
-11.2187 -128.232 173.486
-11.2187 -128.232 173.486
-11.2747 -128.138 173.112
-11.2784 -128.138 173.092
-11.4053 -127.997 172.699
-11.6084 -127.744 172.118
-11.7573 -127.575 171.631
-11.7647 -127.575 171.611
-11.7647 -127.575 171.611
-11.8585 -127.5 171.357
-11.9256 -127.462 171.204
-11.9826 -127.415 171.044
-12.0129 -127.415 170.897
-12.0644 -127.425 170.684
-12.0782 -127.425 170.643
-12.0956 -127.434 170.55
-12.1076 -127.434 170.47
-12.1076 -127.434 170.47
-12.126 -127.453 170.31
-12.1305 -127.453 170.27
-12.1305 -127.453 170.27
-12.1315 -127.453 170.263
-12.1315 -127.453 170.263
-12.1434 -127.462 170.136
-12.1434 -127.462 170.136
-12.1967 -127.49 169.929
-12.2216 -127.509 169.836
-12.2648 -127.528 169.689
-12.2804 -127.528 169.636
-12.2804 -127.528 169.636
-12.2868 -127.537 169.609
-12.3365 -127.556 169.409
-12.3907 -127.584 169.229
-12.4017 -127.594 169.189
-12.4413 -127.612 169.075
-12.467 -127.622 169.009
-12.5212 -127.622 168.868
-12.5323 -127.622 168.842
-12.5892 -127.612 168.688
-12.603 -127.612 168.655
-12.6959 -127.584 168.388
-12.7446 -127.565 168.228
-12.8485 -127.509 167.868
-12.8659 -127.481 167.787
-12.9018 -127.462 167.674
-12.9193 -127.443 167.607
-13.0167 -127.387 167.354
-13.1187 -127.331 167.067
-13.23 -127.256 166.693
-13.3017 -127.18 166.393
-13.309 -127.171 166.366
-13.3099 -127.171 166.366
-13.3927 -127.068 166.153
-13.4193 -127.04 166.106
-13.4451 -127.002 166.053
-13.6225 -126.814 165.625
-14.0508 -126.42 164.478
-14.0637 -126.401 164.424
-14.2062 -126.214 163.997
-14.2476 -126.148 163.857
-14.2926 -126.082 163.717
-14.356 -125.988 163.49
-14.4213 -125.913 163.297
-14.6189 -125.481 162.596
-14.6309 -125.463 162.556
-14.7963 -125.209 162.062
-14.8129 -125.2 162.015
-14.8248 -125.19 161.969
-14.8258 -125.19 161.969
-14.8386 -125.181 161.902
-14.8478 -125.134 161.809
-14.8616 -125.031 161.602
-14.8625 -125.022 161.588
-14.846 -124.862 161.261
-14.8432 -124.806 161.155
-14.8441 -124.806 161.148
-14.8644 -124.777 160.941
-14.9067 -124.731 160.801
-14.937 -124.702 160.694
-14.9784 -124.693 160.567
-15.0243 -124.665 160.401
-15.0464 -124.646 160.307
-15.051 -124.646 160.294
-15.1843 -124.655 159.913
-15.187 -124.655 159.907
-15.3102 -124.655 159.613
-15.3608 -124.646 159.473
-15.4187 -124.665 159.32
-15.5602 -124.665 158.959
-15.7965 -124.665 158.272
-15.825 -124.674 158.212
-15.9114 -124.693 158.032
-16.0355 -124.74 157.798
-16.098 -124.759 157.685
-16.155 -124.768 157.591
-16.2589 -124.787 157.398
-16.303 -124.787 157.318
-16.4951 -124.787 156.964
-16.5264 -124.787 156.898
-16.5337 -124.787 156.884
-16.5879 -124.796 156.771
-16.6348 -124.777 156.711
-16.9768 -124.618 156.33
-17.2121 -124.533 156.004
-17.236 -124.524 155.97
-17.4612 -124.486 155.677
-17.486 -124.486 155.643
-17.9475 -124.515 154.883
-18.1727 -124.599 154.516
-18.5073 -124.749 154.022
-18.5349 -124.759 153.988
-18.6305 -124.777 153.862
-18.6994 -124.796 153.775
-19.0083 -124.946 153.221
-19.1306 -125.003 152.921
-19.2262 -125.022 152.774
-19.2611 -125.031 152.714
-19.4091 -125.106 152.494
-19.5736 -125.181 152.273
-19.5782 -125.19 152.267
-19.8669 -125.303 151.84
-20.0921 -125.388 151.559
-20.3375 -125.472 151.272
-20.4166 -125.528 151.159
-20.4304 -125.528 151.152
-20.7126 -125.603 150.919
-20.7889 -125.632 150.852
-20.8449 -125.641 150.812
-21.0122 -125.669 150.665
-21.2742 -125.65 150.365
-21.5077 -125.641 150.045
-21.562 -125.632 149.965
-21.5629 -125.632 149.965
-21.6235 -125.632 149.865
-21.7623 -125.622 149.638
-21.7706 -125.622 149.624
-21.7706 -125.622 149.624
-21.8239 -125.622 149.524
-21.8405 -125.622 149.491
-21.8809 -125.622 149.411
-21.8818 -125.622 149.411
-21.8929 -125.622 149.391
-21.8929 -125.622 149.391
-21.9342 -125.622 149.297
-21.9425 -125.622 149.277
-21.9425 -125.622 149.277
-21.9719 -125.622 149.204
-21.9719 -125.622 149.204
-22.0069 -125.622 149.11
-22.0473 -125.632 148.99
-22.0473 -125.632 148.99
-22.1098 -125.622 148.824
-22.1365 -125.622 148.743
-22.188 -125.585 148.51
-22.336 -125.444 148.163
-22.3442 -125.435 148.116
-22.4224 -125.369 147.909
-22.4306 -125.359 147.896
-22.5262 -125.266 147.716
-22.6448 -125.19 147.536
-22.7616 -125.115 147.342
-22.7698 -125.106 147.329
-22.8599 -125.05 147.182
-22.9325 -125.003 147.022
-23.0162 -124.946 146.848
-23.1513 -124.862 146.541
-23.1669 -124.853 146.495
-23.1669 -124.853 146.495
-23.2386 -124.834 146.368
-23.3333 -124.834 146.275
-23.3765 -124.824 146.221
-23.599 -124.759 145.834
-23.6734 -124.721 145.707
-23.7038 -124.712 145.641
-23.8297 -124.533 145.34
-23.9961 -124.355 145
-24.0209 -124.327 144.96
-24.1027 -124.252 144.86
-24.1156 -124.242 144.847
-24.2783 -124.167 144.707
-24.5008 -124.073 144.566
-24.5449 -124.045 144.513
-24.6938 -123.961 144.293
-24.9117 -123.773 143.886
-24.9328 -123.754 143.852
-24.9494 -123.736 143.812
-25.0808 -123.529 143.492
-25.0808 -123.529 143.492
-25.0946 -123.52 143.465
-25.1176 -123.491 143.412
-25.2279 -123.369 143.125
-25.2279 -123.369 143.125
-25.2867 -123.304 142.958
-25.2959 -123.294 142.925
-25.4356 -123.247 142.611
-25.4788 -123.2 142.511
-25.4843 -123.182 142.471
-25.6792 -123.041 142.084
-25.8677 -122.909 141.771
-26.0111 -122.825 141.477
-26.0635 -122.806 141.377
-26.1039 -122.806 141.317
-26.1462 -122.787 141.223
-26.1683 -122.787 141.163
-26.1719 -122.787 141.163
-26.2822 -122.787 141.017
-26.3751 -122.787 140.883
-26.4633 -122.797 140.756
-26.5663 -122.787 140.603
-26.7354 -122.778 140.369
-26.831 -122.759 140.183
-26.9156 -122.75 140.056
-27.0691 -122.741 139.849
-27.2153 -122.731 139.682
-27.2236 -122.731 139.675
-27.2236 -122.731 139.675
-27.639 -122.703 139.202
-27.6611 -122.703 139.175
-27.6611 -122.703 139.175
-27.8643 -122.703 139.022
-28.0858 -122.684 138.855
-28.0867 -122.684 138.855
-28.2706 -122.722 138.661
-28.3211 -122.731 138.608
-28.4654 -122.769 138.455
-28.5436 -122.778 138.375
-28.7495 -122.816 138.155
-28.7578 -122.816 138.141
-28.8331 -122.834 138.061
-29.097 -122.919 137.774
-29.1677 -122.938 137.708
-29.1815 -122.938 137.694
-29.392 -123.022 137.388
-29.3948 -123.022 137.381
-29.4141 -123.032 137.361
-29.4463 -123.032 137.294
-29.4849 -123.032 137.234
-29.5023 -123.032 137.207
-29.7156 -123.06 136.921
-29.7947 -123.06 136.787
-29.9886 -123.154 136.527
-30.1394 -123.21 136.34
-30.2616 -123.257 136.2
-30.2975 -123.285 136.087
-30.6119 -123.294 135.74
-30.736 -123.285 135.626
-30.8775 -123.294 135.526
-30.9033 -123.294 135.506
-31.2893 -123.351 135.133
-31.4006 -123.36 135.046
-31.4098 -123.36 135.039
-31.476 -123.379 134.979
-31.7398 -123.435 134.846
-31.9907 -123.473 134.693
-32.2123 -123.52 134.519
-32.477 -123.595 134.286
-32.5873 -123.642 134.212
-32.7215 -123.707 134.106
-32.7252 -123.717 134.099
-32.7252 -123.717 134.099
-32.8704 -123.792 133.993
-32.9357 -123.82 133.947
-32.9458 -123.829 133.94
-32.967 -123.829 133.924
-33.0589 -123.848 133.848
-33.0727 -123.848 133.837
-33.1756 -123.867 133.726
-33.4312 -123.876 133.49
-33.4321 -123.876 133.489
-33.4551 -123.876 133.467
-33.4551 -123.876 133.467
-33.5406 -123.867 133.392
-33.6123 -123.839 133.32
-33.7042 -123.792 133.235
-33.8871 -123.717 133.049
-33.9046 -123.717 133.034
-33.9836 -123.679 132.961
-34.0158 -123.66 132.934
-34.0186 -123.66 132.931
-34.1859 -123.585 132.774
-34.1868 -123.585 132.773
-34.31 -123.538 132.671
-34.3127 -123.538 132.668
-34.3192 -123.529 132.662
-34.389 -123.51 132.608
-34.5223 -123.463 132.509
-34.583 -123.454 132.464
-34.7769 -123.407 132.353
-35.0454 -123.36 132.18
-35.0555 -123.36 132.174
-35.1722 -123.323 132.113
-35.7587 -123.107 131.802
-36.1613 -122.985 131.593
-36.2689 -122.947 131.537
-36.3102 -122.938 131.516
-36.4224 -122.909 131.464
-36.5125 -122.891 131.438
-36.745 -122.797 131.421
-36.7653 -122.787 131.417
-36.7653 -122.787 131.417
-36.8765 -122.703 131.399
-36.8765 -122.703 131.399
-36.9978 -122.618 131.387
-37.0429 -122.581 131.384
-37.0438 -122.581 131.384
-37.1228 -122.515 131.387
-37.2525 -122.412 131.371
-37.3499 -122.328 131.357
-37.5917 -122.121 131.333
-37.6661 -122.055 131.316
-37.7544 -121.971 131.297
-37.7544 -121.971 131.297
-38.0733 -121.689 131.268
-38.1276 -121.642 131.269
-38.1919 -121.595 131.253
-38.2958 -121.492 131.236
-38.3041 -121.483 131.234
-38.3041 -121.483 131.234
-38.4309 -121.304 131.223
-38.4318 -121.304 131.223
-38.4999 -121.182 131.221
-38.5008 -121.182 131.221
-38.7251 -120.816 131.178
-38.726 -120.816 131.178
-38.7839 -120.741 131.172
-38.7858 -120.741 131.172
-38.9264 -120.535 131.166
-38.9843 -120.469 131.172
-39.1185 -120.366 131.177
-39.1185 -120.366 131.177
-39.2187 -120.291 131.185
-39.2206 -120.291 131.185
-39.3226 -120.225 131.197
-39.3235 -120.225 131.197
-39.3787 -120.178 131.207
-39.3796 -120.178 131.207
-39.5827 -119.943 131.256
-39.5846 -119.943 131.257
-39.6112 -119.915 131.261
-39.6131 -119.915 131.261
-39.6379 -119.887 131.263
-39.7298 -119.812 131.275
-39.9311 -119.605 131.305
-40.0947 -119.38 131.332
-40.1738 -119.258 131.34
-40.1876 -119.23 131.341
-40.2188 -119.155 131.348
-40.2354 -119.108 131.35
[...]
CELL_DATA 13515
scalars Radius float
LOOKUP_TABLE default
6.4687 6.4404 6.4395 6.4395 6.4308 6.4307 6.4281 6.4193 6.4185 6.4185 6.4199 6.5659 6.5756 6.5964 6.6193 6.7055 6.7597 6.7975 6.8231 6.8333 6.9141 6.9153 6.9887 7.0418 7.0498 7.1162 7.143 7.1443 7.1668 7.1672 7.1644 7.1545 7.1479 7.1218 7.0683 7.0652 7.0651 7.0581 7.058 7.0445 7.0443 6.9999 6.9612 6.974 6.9757 6.9758 7.0002 7.0238 7.0418 7.0201 6.9942 6.9872 6.9647 6.9434 6.9432 6.9023 6.8928 6.8927 6.8915 6.8914 6.8625 6.8624 6.8075 6.7862 6.7516 6.739 6.7389 6.7332 6.6984 6.6635 6.6573 6.638 6.6214 6.5853 6.5786 6.5362 6.5256 6.4572 6.419 6.3571 6.3412 6.3177 6.3051 6.2566 6.2241 6.21 6.2215 6.2231 6.2232 6.1984 6.1849 6.17 6.0178 5.911 5.9112 5.8737 5.8712 5.8737 5.8802 5.8975 5.9847 5.9878 6.1318 6.1294 6.1274 6.1274 6.1197 6.1153 6.1118 6.1117 6.0804 6.0754 6.0749 6.0481 6.0044 5.9726 5.9344 5.889 5.8657 5.862 5.772 5.7708 5.7204 5.7049 5.6887 5.6749 5.7084 5.7151 5.755 5.8145 5.847 5.8763 5.939 5.9687 6.1089 6.1321 6.1378 6.178 6.1786 6.1477 6.0995 6.0958 6.0429 6.0328 5.9213 5.9044 5.9455 5.9482 5.9498 5.9531 5.9389 5.9553 5.9534 5.9536 5.9186 5.8932 5.892 5.8753 5.8955 5.9219 5.9181 5.9163 5.8836 5.8786 5.8719 5.8332 5.731 5.6349 5.6155 5.6153 5.5906 5.5478 5.5458 5.5458 5.5295 5.5246 5.5123 5.5121 5.5086 5.5086 5.4949 5.4918 5.4918 5.4787 5.4786 5.4648 5.4488 5.4487 5.4251 5.411 5.3417 5.1665 5.1485 5.059 5.0533 4.9345 4.8234 4.7126 4.7023 4.6224 4.5387 4.4456 4.317 4.3003 4.3003 4.2545 4.222 4.2085 4.104 4.0836 4.074 3.9546 3.8652 3.856 3.8222 3.8183 3.7737 3.7397 3.7288 3.6593 3.6032 3.6019 3.5975 3.5777 3.5777 3.5745 3.5603 3.499 3.4988 3.4754 3.4675 3.3865 3.3527 3.3418 3.2352 3.2014 3.2152 3.2193 3.218 3.2134 3.2097 3.2092 3.1973 3.1911 3.1893 3.1918 3.1881 3.186 3.1776 3.1521 3.1341 3.1331 3.1331 3.1681 3.1742 3.1742 3.1955 3.2385 3.2386 3.2465 3.25 3.2639 3.2717 3.3045 3.306 3.3163 3.3757 3.3948 3.4022 3.4979 3.4981 3.4988 3.5048 3.5066 3.5079 3.5313 3.556 3.5575 3.583 3.6117 3.6468 3.678 3.6944 3.6966 3.6994 3.7718 3.8033 3.8064 3.8301 3.8424 3.8509 3.8664 3.9111 3.9156 3.9229 3.9231 3.9231 3.9298 3.9354 3.9362 3.9339 3.9218 3.9204 3.8742 3.7716 3.7712 3.762 3.7619 3.7282 3.6838 3.6246 3.5185 3.5098 3.4682 3.4532 3.4518 3.3826 3.382 3.3458 3.3449 3.3432 3.3242 3.2921 3.2788 3.2396 3.2192 3.219 3.1936 3.146 3.202 3.2283 3.2367 3.254 3.2587 3.1958 3.1874 3.1874 3.1312 3.131 3.0734 3.0467 3.0461 2.999 2.931 2.8767 2.7611 2.7347 2.699 2.6988 2.6011 2.586 2.5663 2.5124 2.507 2.507 2.4016 2.4007 2.3418 2.3416 2.1906 2.19 2.1598 2.1591 2.0983 2.0702 2.0025 2.0022 1.9567 1.956 1.9127 1.9122 1.8866 1.8865 1.8055 1.8049 1.7968 1.7962 1.7878 1.7576 1.7195 1.7113 1.7158 1.7161 1.7168 1.7163 1.7227 1.7427 1.7448 1.7562 1.7673 1.7527 1.738 1.7487 1.7489 1.7795 1.7865 1.7673 1.7472 1.5286 1.4168 1.3402 1.2608 1.2575 1.1296 1.041 0.93157 0.90155 0.85629 0.84554 0.83333 0.79876 0.79185 0.73935 0.73776 0.78456 0.82454 0.86611 0.93325 0.98064 0.98913 1.0504 1.0628 1.1763 1.2555 1.2798 1.3158 1.3158 1.3158 1.3069 1.2885 1.2883 1.2691 1.2686 1.194 1.1937 1.1272 1.0913 1.0485 1.0077 0.982 0.95054 0.9288 0.90492 0.88917 0.85025 0.83683 0.82308 0.79823 0.74454 0.73378 0.71401 0.7335 0.73762 0.832 0.84926 0.85178 0.85018 0.82974 0.77103 0.75206 0.75199 0.73116 0.69505 0.68373 0.68249 0.6725 0.6972 0.69786 1.7662 1.7626 1.7592 1.7591 1.7535 1.7547 1.7603 1.7785 1.8462 1.8535 1.8726 1.6066 1.4924 1.399 1.3983 1.3419 1.3024 1.2292 1.2309 1.2398 1.2647 1.2878 1.2934 1.3245 1.329 1.3562 1.3594 1.3639 1.3604 1.3433 1.3395 1.3394 1.3302 1.3337 1.3213 1.3143 1.3052 1.3068 1.2975 1.293 1.2595 1.2594 1.243 1.2428 1.2304 1.2294 1.2223 1.2222 1.2082 1.1857 1.1517 1.1423 1.1097 1.0942 1.076 1.0563 1.0548 1.0548 1.0548 1.0681 1.0691 1.0921 1.1206 1.1207 1.1785 1.2606 1.2122 1.1664 1.0101 0.91867 0.91052 0.87128 0.81299 0.81228 0.78971 0.78953 0.77751 0.77746 0.7288 0.70701 0.67676 0.57359 0.5189 0.49764 0.47467 0.48573 0.48537 0.48943 0.48463 0.47686 0.47442 0.46311 0.44661 0.44648 0.43595 1.2613 1.2843 1.3081 1.3158 1.3065 1.2972 1.2863 1.2826 1.2594 1.2302 1.2173 1.2044 1.1217 1.0849 1.0841 1.0597 1.0499 0.98102 0.97815 0.88031 0.87847 0.86166 0.85541 0.80196 0.80065 0.79543 0.76555 0.76411 0.75899 0.77059 0.77159 0.76509 0.76469 0.77404 0.77785 0.78005 0.78415 0.7848 0.78245 0.78445 0.7836 0.79095 0.79104 0.83517 0.8412 0.84516 0.84625 0.83684 0.83657 0.83648 0.82496 0.82171 0.8217 0.80491 0.80661 0.80664 0.80276 0.80316 0.80244 0.79189 0.79181 0.77565 0.7788 0.77676 0.77662 0.77172 0.76429 0.75948 0.80928 0.80932 0.81562 0.82032 0.79223 0.79215 0.76537 0.74601 0.7093 0.6703 0.64096 0.63645 0.61223 0.57362 0.56483 0.56415 0.54752 0.54739 0.50852 0.50836 0.5074 0.50367 0.49434 0.49062 0.4895 0.4879 0.48389 5.953 5.9358 5.7996 5.7183 5.6558 5.6557 5.648 5.639 5.6181 5.6077 5.6062 5.5339 5.5238 5.4659 5.4262 5.4162 5.4074 5.2736 5.0758 5.0621 5.0609 5.0713 5.0709 5.074 5.0623 5.0662 5.0677 5.0659 5.0602 5.0556 5.0421 5.0325 4.9938 4.9084 4.8398 4.7213 4.7036 4.5395 4.4889 4.4336 4.3856 4.3842 4.3307 4.303 4.3029 4.2126 4.209 4.2076 4.197 4.1667 4.0825 3.9075 3.8903 3.8888 3.8538 3.7723 3.7475 3.7032 3.5631 3.533 3.532 3.3332 3.2043 3.1889 3.173 3.0391 3.0305 3.0299 2.9694 2.9692 2.9565 2.9561 2.9141 2.914 2.8896 2.8895 2.8247 2.7879 2.773 2.7729 2.7713 2.7291 2.729 2.729 2.6923 2.6669 2.6494 2.5997 2.5568 2.5548 2.5485 2.534 2.4805 2.4624 2.4623 2.4138 2.4108 2.4066 2.3832 2.3558 2.2761 2.2642 2.3043 2.319 2.3779 2.4172 2.4295 2.4343 2.4374 2.4016 2.3826 2.365 2.354 2.36 2.3985 2.422 2.4506 2.4667 2.4793 2.4924 2.5127 2.5298 2.5641 2.5693 2.623 2.6652 2.6662 2.7297 2.7911 2.7979 2.723 2.72 2.5594 2.5554 2.496 2.4892 2.4039 2.377 2.3278 2.3276 2.3186 2.3185 2.2509 2.195 2.1878 2.1696 2.1694 2.1136 2.1133 2.0926 2.0468 2.0335 1.9658 1.9652 1.9392 1.849 1.8274 1.826 1.8057 1.8056 1.7893 1.7866 1.7746 1.7205 1.6995 1.6596 1.5982 1.6044 1.6045 1.5959 1.587 1.5807 1.58 1.5793 1.5651 1.5629 1.5628 1.5549 1.5369 1.5368 1.5354 1.5345 1.5232 1.528 1.5313 1.5297 1.5271 1.5278 1.5214 1.5212 1.5212 1.5209 1.5247 1.5248 1.5164 1.5144 1.515 1.5168 1.5355 1.5357 1.5393 1.5524 1.5513 1.5677 1.5725 1.5935 1.6092 1.6263 1.6874 1.6988 1.7628 1.7875 1.8191 1.8014 1.735 1.7011 1.6927 1.647 1.6221 1.5954 1.5661 1.5652 1.5652 1.5559 1.553 1.5405 1.5319 1.5318 1.5289 1.5151 1.5091 1.5079 1.4943 1.4943 1.4987 1.4909 1.4601 1.452 1.4465 1.439 1.425 1.411 1.3978 1.3505 1.3491 1.3485 1.2928 1.2881 1.2781 1.256 1.2433 1.2407 1.2263 1.2148 1.2007 1.1918 1.1897 1.188 1.1899 1.1879 1.1943 1.1946 1.1995 1.2015 1.2052 1.2105 1.2135 1.239 1.2685 1.2757 1.2923 1.2925 1.2766 1.2782 1.2516 1.2472 1.1972 1.1771 1.0457 1.0124 0.9877 0.90499 0.86284 0.82409 0.78773 0.76506 0.73381 0.64899 0.62304 0.60282 0.5266 0.52411 0.50243 0.49571 0.45327 0.45076 0.48802 0.49371 0.53691 0.5682 0.6471 0.65281 0.67135 0.67435 0.66998 0.66984 0.66865 0.65508 0.63845 0.64287 2.4176 2.417 2.4092 2.382 2.339 2.2731 2.2685 2.2993 2.309 2.3104 2.334 2.3325 2.3325 2.2947 2.2939 2.2824 2.2802 2.2912 2.293 2.2972 2.3 2.3527 2.3669 2.3953 2.4863 2.4911 2.5156 2.5299 2.5361 2.5371 2.567 2.5946 2.6499 2.6529 2.7242 2.7826 2.8132 2.8131 2.8148 2.797 2.6944 2.6271 2.5451 2.4682 2.3967 2.3579 2.3576 2.3275 2.2929 2.2903 2.28 2.2394 2.2391 2.2183 2.2182 2.1902 2.1751 2.1749 2.1695 2.1675 2.138 2.1376 2.074 2.0554 2.0493 2.049 2.0215 2.0094 2.0076 1.9732 1.9414 1.9411 1.9353 1.8663 1.7824 1.7672 1.6741 1.6691 1.6455 1.6436 1.6045 1.6033 1.5825 1.5768 1.5803 1.582 1.5834 1.5971 1.6068 1.6097 1.6133 1.613 1.5906 1.5799 1.5787 1.5779 1.576 1.5803 1.5787 1.5783 1.5776 1.5773 1.5829 1.6016 1.6033 1.607 1.6029 1.5984 1.5963 1.5947 1.5773 1.5565 1.5546 1.5253 1.5156 1.5035 1.5005 1.4887 1.4659 1.4573 1.4552 1.4453 1.4452 1.439 1.4173 1.4119 1.4118 1.4 1.3798 1.3664 1.3556 1.3582 1.3638 1.3857 1.399 1.4084 1.4219 1.4324 1.4535 1.4538 1.4538 1.4604 1.4606 1.4606 1.4606 1.4953 1.5192 1.4598 1.4593 1.4358 1.4292 1.4103 1.3929 1.3567 1.305 1.2936 1.2588 1.2453 1.24 1.2399 1.219 1.2189 1.1892 1.1699 1.1518 1.1381 1.0886 1.0861 1.0783 1.0283 1.0279 1.021 1.0121 0.99544 0.9943 0.97721 0.97146 0.91382 0.90082 0.88875 0.83824 0.83604 0.84149 0.87003 0.87624 0.87629 0.92272 0.93652 0.93757 0.9489 0.9329 0.91749 0.90136 0.89206 0.88177 0.87522 0.85088 0.85115 0.85481 0.86396 0.8858 0.89883 0.89752 0.8975 0.8962 0.89046 0.88659 0.89077 0.89069 0.88914 0.88439 0.88438 0.88813 0.89579 0.8945 0.89418 0.8975 0.8886 0.88892 0.89265 0.90175 0.90144 0.89914 0.89913 0.90055 0.9009 0.90073 0.89886 0.89629 0.89413 0.88347 0.88318 0.88151 0.90161 0.90542 0.92184 0.93116 0.94841 0.94978 0.95003 0.94916 0.93452 0.92348 0.89985 0.87647 0.86837 0.83472 0.83459 0.81907 0.81881 0.81703 0.7472 0.71141 0.70487 0.70275 0.66905 0.66909 1.5283 1.5309 1.5314 1.5302 1.5295 1.5274 1.5278 1.5263 1.5143 1.5099 1.5103 1.5098 1.5098 1.5079 1.4873 1.4868 1.4889 1.499 1.5075 1.5554 1.5712 1.5802 1.5938 1.5966 1.6235 1.6354 1.6654 1.6663 1.6611 1.6541 1.6532 1.5649 1.5084 1.4745 1.4441 1.4163 1.4081 1.3562 1.3401 1.229 1.1831 1.084 1.0567 1.0192 1.0032 0.98712 0.98706 0.96799 0.96526 0.95018 0.95848 0.98265 1.0368 1.1025 1.1108 1.1074 1.0988 1.0914 1.0705 1.0545 1.0541 1.0517 1.0511 1.0381 1.0369 1.0369 1.0111 0.98452 0.95133 0.94774 0.95748 0.96263 0.97889 0.98274 0.98733 1.0152 1.018 1.0419 1.0642 1.0747 1.0735 1.0735 1.0468 0.99291 0.94676 0.93559 0.93356 0.8915 0.86335 0.85123 0.82118 0.80887 0.80467 0.77324 0.72469 0.72894 0.71034 0.69005 0.68927 0.68692 0.68179 0.67363 0.67163 0.66222 0.66046 0.65607 0.65401 0.64557 0.63046 0.6368 0.65223 0.68108 0.71811 0.73175 0.73067 0.71471 0.65876 0.65153 0.64198 0.62657 0.60441 0.60063 2.6778 2.6843 2.7377 2.9129 2.9546 2.9259 2.8932 2.8481 2.6088 2.4784 2.3917 2.2369 2.2294 2.2293 2.2075 2.2073 2.0674 2.0663 2.0495 2.0334 1.9158 1.9153 1.8778 1.8527 1.8238 1.8101 1.6989 1.6984 1.6532 1.6501 1.6235 1.5992 1.575 1.5743 1.5671 1.5636 1.5609 1.5608 1.5487 1.5485 1.537 1.6206 1.6529 1.6775 1.6794 1.7612 1.8057 1.8076 1.8238 1.8238 1.8238 1.8387 1.8452 1.8457 1.8457 1.8453 1.8366 1.8183 1.8091 1.8035 1.7824 1.7759 1.7647 1.7584 1.7589 1.7602 1.8032 1.805 1.8311 1.8316 1.832 1.8326 1.8337 1.8384 1.8386 1.839 1.8321 1.8261 1.8091 1.7966 1.7896 1.7781 1.7737 1.7683 1.7698 1.771 1.7686 1.7638 1.7621 1.7596 1.7571 1.7591 1.7652 1.6696 1.6316 1.5817 1.5525 1.4545 1.4284 1.3914 1.3657 1.3656 1.3537 1.3095 1.3169 1.3781 1.3957 1.4233 1.4325 1.4548 1.4576 1.4686 1.4631 1.4589 1.4429 1.4389 1.4095 1.404 1.3955 1.3453 1.3339 1.3055 1.2852 1.276 1.2733 1.2733 1.2429 1.2282 1.1968 1.1915 1.1818 1.1554 1.1501 1.15 1.0969 1.0529 1.0256 1.0045 1.0027 0.98853 0.9819 0.97647 0.95862 0.95483 0.95467 0.95316 0.96446 0.96498 0.95687 0.94804 0.94382 0.92733 0.91799 0.91543 0.91421 0.89082 0.87958 0.84078 0.82707 0.81508 0.72246 0.71258 0.67829 0.64901 0.6398 0.63729 0.63649 0.64535 0.68708 0.70982 0.8155 0.82242 0.82096 0.74129 0.67402 0.65387 0.59886 0.59165 0.58645 0.58176 0.59266 0.59963 0.61089 0.61077 0.59957 0.59928 0.59413 0.55994 0.54378 0.53567 0.53367 0.52793 0.51592 0.5178 0.5141 0.50928 0.50423 0.47963 0.46675 0.45088 0.43755 0.42974 0.41656 0.40975 0.39208 0.38039 0.39239 0.37946 0.37984 0.37943 0.36043 0.36076 0.36076 0.35939 0.35313 0.37241 0.37018 0.37487 0.39792 0.39944 0.42693 0.43383 0.70811 0.69612 0.64132 0.63489 0.6714 0.6711 0.75431 0.75442 0.75921 0.75779 0.75654 0.75363 0.72956 0.72711 0.72706 0.67436 0.63308 0.58731 0.52133 0.51002 0.50346 0.52471 0.53952 0.5409 0.54058 0.55356 0.55517 0.58157 0.58251 0.59846 0.60261 0.59695 0.59718 0.63785 0.64935 0.67005 0.67439 0.66811 0.66699 0.65954 0.6351 0.63512 0.63535 0.62641 0.61859 0.62628 0.62646 0.62903 0.6393 0.66958 0.67402 0.6702 1.1972 1.1964 1.1868 1.1566 1.1458 1.1062 1.0857 1.0857 1.0709 1.0284 1.0214 0.99699 0.99499 0.96267 0.95928 1.0048 1.0539 1.1001 1.124 1.1254 1.1471 1.1486 1.1471 1.1731 1.1686 1.1352 1.1207 1.0854 1.08 1.0769 1.068 1.0288 1.0218 0.98722 0.98665 0.97451 0.96376 0.94811 0.94792 0.92402 0.92099 0.91865 0.91589 0.90596 0.90095 0.88833 0.88076 0.85677 0.80379 0.78256 0.76274 0.72743 0.70418 0.70477 0.70657 0.70985 0.71093 0.70964 0.70963 0.72536 0.73283 0.73557 0.75521 0.75744 0.75877 0.76068 0.76069 0.80015 0.87087 0.87783 0.92391 0.92492 0.92385 0.91795 0.91747 0.91093 0.90937 0.90876 0.90875 0.90611 0.90098 0.8513 0.80352 0.77886 0.77045 0.70695 0.68226 0.67398 0.7086 0.71193 0.72711 0.74389 0.74428 0.74007 0.70715 0.69684 0.69119 0.61504 0.57906 0.55183 0.53583 0.51107 0.49408 0.49401 0.47286 0.47435 0.47435 0.47192 0.90063 0.89893 0.89906 0.90094 0.90105 0.90865 0.90895 0.90771 0.90737 0.9001 0.88784 0.83221 0.80951 0.79518 0.79512 0.76397 0.75925 0.75623 0.73012 0.71174 0.69965 0.69626 0.64224 0.64016 0.64015 0.6373 0.61719 0.60029 0.59888 0.60195 0.61887 0.60356 0.59752 0.57796 0.57789 0.59555 0.59639 0.5964 0.64647 0.65205 0.74836 0.76209 0.81093 0.81249 0.81249 0.82309 0.82384 0.82496 0.8223 0.82087 0.82251 0.82193 0.80437 0.79591 0.79384 0.78425 0.76041 0.75347 1.4248 1.4209 1.4175 1.3994 1.397 1.3978 1.3998 1.4003 1.4041 1.4053 1.3959 1.3944 1.3944 1.3755 1.365 1.3287 1.3287 1.3205 1.3151 1.3151 1.3178 1.3266 1.3271 1.3179 1.315 1.3091 1.3034 1.2702 1.2624 1.2476 1.2353 1.2044 1.1187 1.1183 1.0597 1.0577 1.0525 1.0175 1.017 0.99714 0.98849 0.9867 0.93416 0.89713 0.86338 0.86255 0.86019 0.86018 0.83298 0.82148 0.82139 0.79318 0.78551 0.78581 0.78769 0.84422 0.85045 0.86431 0.92032 0.94241 0.94275 0.94276 0.93677 0.93476 0.93034 0.92313 0.90276 0.90268 0.89989 0.89882 0.89522 0.87535 0.85658 0.86702 0.90734 0.91865 0.91668 0.90544 0.853 0.83245 0.83235 0.83195 0.81466 0.79342 0.79316 0.76009 0.75983 0.73507 0.72266 0.71949 0.68924 0.68331 0.68346 0.68651 0.70098 0.70176 0.69976 0.68054 0.67715 0.65884 0.65783 0.65786 0.67025 0.67223 0.74549 0.75516 0.79999 0.80546 0.8457 0.84735 0.84019 0.84543 0.85205 0.86619 0.87791 0.85877 0.83532 0.82397 0.74091 0.7347 0.6855 0.626 0.62576 0.59141 0.59099 0.54192 0.43773 0.42192 0.44676 0.50667 0.53578 0.58092 0.58319 0.61176 0.62525 0.6403 0.64132 0.68916 0.71239 0.71548 0.7435 0.77012 0.78761 0.80639 0.80697 0.81898 0.81866 0.81865 0.81783 0.79192 0.77399 0.74093 3.326 3.3259 3.315 3.3094 3.286 3.2859 3.2749 3.2557 3.2505 3.2386 3.187 3.1862 3.1862 3.2346 3.3071 3.2708 3.2736 3.2766 3.2764 3.2764 3.2727 3.2725 3.2634 3.2627 3.2636 3.3132 3.3204 3.3167 3.3174 3.3173 3.3156 3.4076 3.3702 3.3462 3.1545 3.0723 2.8956 2.8101 2.8094 2.6941 2.68 2.6722 2.6056 2.5833 2.5686 2.5415 2.4776 2.4771 2.4513 2.4404 2.4402 2.4218 2.3485 2.3476 2.344 2.2561 2.2455 2.1834 2.0884 2.0227 1.9827 1.9731 1.8478 1.8455 1.8412 1.8367 1.8173 1.8626 1.8614 1.8612 1.8749 1.8753 1.8853 1.8862 1.8755 1.8728 1.7591 1.6745 1.6394 1.5488 1.546 1.4591 1.4279 1.3995 1.3967 1.3906 1.3974 1.4015 1.4114 1.4334 1.4588 1.4651 1.4824 1.4826 1.4924 1.4924 1.4924 1.5265 1.5459 1.6068 1.6547 1.7354 1.7798 1.7906 1.7908 1.8038 1.7802 1.7712 1.7665 1.7663 1.7636 1.7575 1.7317 1.721 1.7196 1.7012 1.6976 1.6671 1.6547 1.6424 1.6048 1.6013 1.5866 1.5861 1.5485 1.5456 1.5168 1.5159 1.5143 1.4853 1.4833 1.4399 1.3213 1.3131 1.3018 1.3038 1.3038 1.3124 1.3252 1.3266 1.3322 1.3312 1.3312 1.3203 1.2915 1.2419 1.2305 1.1681 1.137 1.107 1.0612 0.98915 0.97017 0.9335 0.89381 0.88377 0.87448 0.87164 0.8089 0.81085 0.78985 0.78746 0.7652 0.7515 0.73077 0.73144 0.73504 0.74223 0.75194 0.78602 0.80243 0.81154 0.85026 0.85607 0.8566 0.85427 0.85396 0.83405 0.82472 0.83024 0.82782 0.81612 0.81996 0.81685 0.80994 0.80991 0.80468 0.80466 0.76891 0.75081 0.75234 0.75146 0.75146 0.7655 0.76463 0.74951 0.74659 0.73268 1.0427 1.0482 1.0633 1.0753 1.0795 1.1072 1.1102 1.1097 1.1051 1.0804 1.0344 1.0294 0.99168 0.91518 0.91232 0.8633 0.82482 0.79377 0.78432 0.76267 0.67874 0.65636 0.61554 0.60243 0.60148 0.59846 0.59702 0.57925 0.5781 0.589 0.61712 0.64561 0.64762 0.64627 0.64222 0.65652 0.68939 0.70287 0.70878 0.73742 0.745 0.75087 0.75015 0.74559 0.74236 0.72511 0.71003 0.70943 0.68675 0.68689 0.68681 0.68264 0.68237 0.67821 0.69301 0.67273 0.68125 0.68434 0.70084 0.72166 0.72943 0.7295 0.72838 0.71149 0.70263 0.69724 0.69323 0.69315 0.66637 0.66278 0.64141 0.64124 0.65166 0.66845 0.67001 0.72673 0.73603 0.74943 0.75424 0.71877 0.71664 0.7125 0.67219 0.61062 0.60778 0.58128 0.57203 0.52779 0.49848 0.49771 0.47927 0.41753 0.40961 0.38746 0.36493 0.36475 0.35078 0.3312 0.30663 1.4991 1.5006 1.4945 1.4941 1.4876 1.4862 1.4605 1.4331 1.4319 1.3593 1.3479 1.3169 1.2808 1.2617 1.2603 1.2547 1.2435 1.2356 1.2146 1.2143 1.2047 1.2047 1.1998 1.1961 1.1956 1.2084 1.2348 1.2601 1.2877 1.2878 1.3325 1.3413 1.3733 1.4091 1.4481 1.46 1.4609 1.4609 1.4561 1.4407 1.4399 1.408 1.3736 1.3708 1.3347 1.3262 1.3214 1.3056 1.2969 1.296 1.287 1.287 1.2841 1.2841 1.2838 1.2838 1.3144 1.3182 1.298 1.2959 1.2786 1.2894 1.2981 1.2935 1.2359 1.2344 1.1961 1.1769 1.1188 1.0791 1.079 1.0098 0.99307 0.97986 0.97931 0.94542 0.94473 0.89898 0.89727 0.89032 0.87275 0.88428 0.89587 0.89626 0.9357 0.95401 0.9622 0.96193 0.95301 0.93063 0.90343 0.88289 0.86581 0.86533 0.85641 0.8483 0.84518 0.83296 0.82916 0.76922 0.73625 0.73556 0.71383 0.70686 0.70743 0.70017 0.70033 0.73472 0.74654 0.83937 0.86428 0.86438 0.91866 0.88709 0.81095 0.77078 0.76573 0.74453 0.73298 0.70676 0.65914 0.61037 0.54067 0.52085 0.70783 0.75574 0.76475 0.78298 0.78183 0.77086 0.76292 0.76289 0.74148 0.71256 0.66707 0.6668 0.66026 0.64921 0.6303 0.64559 0.64585 0.64585 0.64838 0.65218 0.66966 0.66993 0.67218 0.67171 0.65837 0.65941 0.66189 0.67911 0.68071 0.68662 0.68259 0.71819 0.72434 0.73014 0.75526 0.77804 0.78615 0.831 0.83718 0.83725 0.87125 0.87199 0.87099 0.86501 0.80695 0.72473 0.7244 0.66586 0.66186 0.62942 0.5774 0.56154 0.56034 0.55008 0.51984 0.51477 0.51757 0.55634 0.57293 0.57023 0.57389 0.57099 0.56125 0.62749 0.63224 0.64363 0.6619 0.66443 0.66675 0.66713 0.66675 0.65561 0.6179 0.55167 0.52455 1.1107 1.1139 1.1833 1.1896 1.1913 1.2034 1.2616 1.2634 1.2496 1.236 1.2338 1.194 1.1926 1.1412 1.1289 1.1042 1.0708 1.0465 1.0401 1.0361 1.02 1.0198 1.0029 0.99316 0.96894 0.96317 0.95379 0.94473 0.89854 0.87651 0.84684 0.81847 0.80506 0.79412 0.81337 0.88408 0.88457 0.89241 0.93785 0.94913 0.96336 0.97396 0.99486 0.99576 0.99604 0.99488 0.98443 0.98479 0.97866 0.96359 0.94948 0.94744 0.92962 0.91851 0.90952 0.93243 0.93259 0.93259 0.91753 0.89998 0.89589 0.86107 0.85761 0.87328 0.89009 0.89015 0.89191 0.89126 0.89984 0.90442 0.91728 0.96496 0.97348 1.0172 1.0228 1.0196 1.0159 1.016 1.0087 1.0035 1.001 0.98566 0.97731 0.97597 0.97326 0.98785 1.009 1.028 1.0297 1.0297 1.0377 1.0485 1.0587 1.0576 1.064 1.0535 1.0448 1.0128 1.0019 0.96689 0.93858 0.87359 0.85556 0.79499 0.73314 0.70956 0.70947 0.70129 0.66929 0.65799 0.65446 0.61073 0.60685 0.60645 0.61215 0.60758 0.62402 0.63135 0.63343 0.63884 0.6484 0.65449 0.66433 0.68342 0.6863 0.73005 0.73647 0.73757 0.72773 0.7301 0.72413 0.71633 0.71613 0.69513 0.68719 0.68447 0.6734 0.66349 0.63197 0.62931 0.61318 0.59781 0.59072 0.58937 0.57719 0.56321 3.1682 3.1744 3.2574 3.2613 3.2664 3.2737 3.2882 3.2899 3.2965 3.3338 3.3492 3.3493 3.3632 3.3677 3.4963 3.5134 3.5398 3.5965 3.6855 3.7124 3.703 3.6664 3.6655 3.7139 3.749 3.7485 3.7513 3.7564 3.7487 3.7448 3.7442 3.7423 3.7269 3.7187 3.7047 3.6455 3.6455 3.6441 3.6289 3.6053 3.5882 3.5688 3.5708 3.5697 3.5227 3.522 3.4868 3.4488 3.4036 3.3736 3.3377 3.2191 3.2102 3.1558 3.1404 2.9999 2.9839 2.9343 2.9287 2.8643 2.8616 2.8188 2.8186 2.7513 2.6609 2.6502 2.6253 2.5894 2.471 2.4664 2.3745 2.2843 2.2832 2.2399 2.1891 2.1852 2.1793 2.1283 2.1275 2.1243 2.0881 2.0767 2.0751 2.0274 2.0269 2.026 2.0282 2.0327 2.0471 2.1078 2.1522 2.1702 2.1811 2.1879 2.2045 2.2315 2.2545 2.3033 2.3363 2.347 2.3459 2.3463 2.3401 2.3418 2.3469 2.3497 2.3535 2.3602 2.3642 2.3695 2.3713 2.374 2.3741 2.3739 2.3696 2.3529 2.3428 2.3308 2.3275 2.2992 2.2961 2.2918 2.2919 2.2919 2.2958 2.3012 2.3061 2.3418 2.3423 2.3445 2.3452 2.3927 2.3949 2.3942 2.4135 2.4183 2.4417 2.4551 2.4582 2.4729 2.473 2.4773 2.4778 2.4787 2.4778 2.4552 2.4533 2.4459 2.4437 2.4108 2.4047 2.4047 2.3984 2.3848 2.3802 2.3798 2.3793