# For a description of the Tecplot format see the Tecplot User's guide.
#
Variables=x,y,z,s_u,s_v,s_w,s_p,mono_f_vel_u,mono_f_vel_v,mono_f_vel_w,const,u_nu,v_nu,w_nu,p_nu,x_nu,y_nu,z_nu,const,u_ref,v_ref,w_ref,vol_ref,x_ref,y_ref,z_ref,const,I1,I2,I3,J,p1,p2,p3
Zone f=fepoint, n=3174, e=16683, et=brick, c=black
-25.1435 -154.535 109.661 -25.143527984229038 -154.53527989724614 109.66140650991434 -10.946272757179054 3.7510339277159810e-06 -5.1720294961751177e-05 8.3070011621849725e-05 47.219666715232613 3.0213924584465701e-08 2.0649273124728751e-08 2.2729576359736825e-05 -0.00037819401844686181 1.1750735598663963e-08 5.8507491005353185e-08 2.6905882761470045e-08 0.0038675806016423057 -24.903554063199991 -154.16086777200002 112.24023381839994 89.724962256112903 0.0000000000000000 0.0000000000000000 0.0000000000000000 0.0000000000000000 3.0824982626912654 3.1665170995122676 1.0840260327211637 1.0439600760632028 445.43217553585578 445.43212869855682 1.0411658160260537 
-37.797499648057077 -155.49681012504863 112.39978450643945 -37.797499648057062 -155.49681012504871 112.39978450643946 -17.281594708255287 4.7579993769028866e-05 8.6007717829748555e-05 -1.2483893624483634e-05 0.0000000000000000 6.0960721224325173e-06 -2.8106754706066753e-06 2.7165575829005797e-05 0.00038130877686296590 -4.9013303864607373e-09 -5.5951512756756002e-09 9.4356948478141541e-09 0.0000000000000000 -37.438273663334591 -155.10473791080037 114.93291110338620 89.036758072416930 0.0000000000000000 0.0000000000000000 0.0000000000000000 0.0000000000000000 3.1070871608191015 3.2174991250091547 1.1104415431335781 1.0517243819411994 621.37454334442725 621.37475981931095 1.0537845880356906 
-31.827576764492303 -148.22122068846213 117.50060898692875 -31.827576764492285 -148.22122068846204 117.50060898692881 -22.909134186223639 -2.1666283303999132e-05 6.4185757910172539e-05 1.3468008874419468e-05 0.0000000000000000 3.5877544296569752e-08 1.8869825979539456e-08 2.0807395171296150e-05 -0.0015196693313989998 3.5021476391742700e-09 -1.7625934367188532e-08 -1.0692256812094793e-08 0.0000000000000000 -31.542619574254449 -147.87907313389167 119.86135157363466 98.260374494724786 0.0000000000000000 0.0000000000000000 0.0000000000000000 0.0000000000000000 3.0919891326601410 3.1862173477718003 1.0942440861302591 1.0466670673313720 582.66024457294043 582.66020646613640 1.0460480449600240 
-28.912998018259984 -143.28430169676858 109.54238240884428 -28.912998018259973 -143.28430169676858 109.54238240884432 -17.827676223850411 -0.00013091113850655382 8.5800780589209222e-06 8.3200077402577555e-05 0.0000000000000000 3.3407924593387150e-08 1.7478527347680736e-08 2.2758761203611755e-05 -0.0049174207397276208 2.8568009863765790e-08 -2.3057756393260958e-08 -1.4484315933563602e-08 0.0000000000000000 -28.647655777685479 -142.96738158566356 112.12452093910819 112.69127588814607 0.0000000000000000 0.0000000000000000 0.0000000000000000 0.0000000000000000 3.0959128983417381 3.1940726192945692 1.0981731713941985 1.0482259835619943 553.59198194103965 553.59203785630586 1.0479280958165242 
-24.497486293490290 -201.04423055243421 70.045617480846516 -24.497486293490287 -201.04423055243421 70.045617480846531 -1274.4501929169633 -9.0173881994419427e-05 5.3459598693224063e-05 -6.7666358413643937e-05 -1222.0304886445322 2.9666511303094729e-08 3.3756427153530666e-08 3.2443411993376969e-05 0.011943911616699783 3.3633573689577652e-09 -9.7243201336880168e-09 4.4896912775730367e-09 0.013756670487739906 -24.261860196399997 -200.43215969199997 73.726546483199982 142.71380061529433 0.0000000000000000 0.0000000000000000 0.0000000000000000 0.0000000000000000 3.0823196874305454 3.1661898956958030 1.0838785448923731 1.0409042507218722 2619.3320144690624 2700.2031198134596 1.0410955259334396 
-24.392316070252573 -188.18544070601422 71.674261720293487 -24.392316070252573 -188.18544070601419 71.674261720293501 -1292.5685528351560 6.4598897311451359e-05 1.3611531239057361e-05 4.0784321670425371e-05 -1330.6846356410770 2.9577395449509325e-08 3.0132572714780530e-08 3.2044066602843202e-05 0.0087053327653771797 4.0948016330649039e-09 1.0275617857380122e-08 3.2743229585089510e-09 0.015687569025584602 -24.157397762799999 -187.63907770800003 75.309882232799993 165.73632395326644 0.0000000000000000 0.0000000000000000 0.0000000000000000 0.0000000000000000 3.0820276987038953 3.1655645131979293 1.0835445541360615 1.0409042507218718 2763.4460204184429 2792.2826832305245 1.0409314896047481 
-35.193149577574893 -195.99761179163485 78.140960611392003 -35.193149577574872 -195.99761179163485 78.140960611392032 -1222.2561637380272 0.00012544010830537269 -2.1258637186836289e-05 5.3011261202559317e-06 0.0000000000000000 3.8729307122453704e-08 3.2334188604377090e-08 3.0458424831181219e-05 0.00029381793389761330 -7.6347579346304664e-09 2.1899601877977615e-08 3.0993199923545849e-08 0.0000000000000000 -34.885542273181727 -195.41132893576267 81.596679120775832 139.46796289390394 0.0000000000000000 0.0000000000000000 0.0000000000000000 0.0000000000000000 3.0802394180639010 3.1619512021572400 1.0817197349593919 1.0392244826560022 2645.3613793445256 2636.1772941344520 1.0400570168009817 
-19.021373127042253 -195.11145463263009 77.951979068178801 -19.021373127042242 -195.11145463263009 77.951979068178829 -1282.4010891668258 -7.8060291992234270e-06 0.00019057104309135449 0.00013071102294527669 0.0000000000000000 2.5026415245710254e-08 3.2084447487701346e-08 3.0504763305572172e-05 0.012132717525908330 -2.5866956878434196e-09 -6.4418715271894485e-09 -4.1091969254001686e-09 0.0000000000000000 -18.822600960987238 -194.52970000168264 81.412954998504986 111.95285379220412 0.0000000000000000 0.0000000000000000 0.0000000000000000 0.0000000000000000 3.0824346915219203 3.1664056153180709 1.0839791376855461 1.0409042507218715 2781.6662304205620 2754.4835590426565 1.0411448557543681 
-22.888781680280236 -103.32061675386980 38.685316541272798 -22.888781680280236 -103.32061675386980 38.685316541272805 -602.43538555366422 -8.7813276593715956e-05 0.00014141180783706117 -0.00013484914484175755 -634.31166898363529 2.8303402316298694e-08 6.2159526970084747e-09 4.0132992736197082e-05 0.010909961515505419 3.7980066200126176e-10 -1.7695861562611014e-09 2.2462143838552886e-09 0.011562333093659796 -22.663982073999996 -103.20790935200000 43.238681550399988 69.202643319072678 0.0000000000000000 0.0000000000000000 0.0000000000000000 0.0000000000000000 3.0818834337718175 3.1652918175434319 1.0834164938332165 1.0409042507218720 1547.7723626732311 1541.8216914498882 1.0408729794980596 
-30.427193375854330 -110.92467073428168 42.542702531360476 -30.427193375854340 -110.92467073428168 42.542702531360476 -550.49128698550828 -1.8408204970269067e-05 0.00013601113963253392 -0.00012951441052563975 -505.55410878012412 3.4690951250526680e-08 8.3589223875968344e-09 3.9187157391928906e-05 0.010558933816854460 1.1712505009155835e-09 -1.3291476030501797e-09 9.2771032971504984e-10 0.010133324324971700 -30.151660686400003 -110.77310694400001 46.988755992800002 74.715282964229786 0.0000000000000000 0.0000000000000000 0.0000000000000000 0.0000000000000000 3.0820827905536388 3.1656948392241744 1.0836201858562862 1.0409042507218726 1393.4585061971777 1395.1624272715924 1.0409708999345393 
-18.933329954497111 -103.68160033241232 45.648776057960696 -18.933329954497111 -103.68160033241232 45.648776057960681 -519.71847639675752 -7.7059580157661680e-05 7.9988303946368963e-05 -0.00012676746277104467 -525.97585893669213 2.4951815308371647e-08 6.3176737730152865e-09 3.8425544699016718e-05 0.010172097295221240 7.6042954713590079e-11 -7.1266854818440528e-10 1.0031736487823712e-09 0.010651045310583933 -18.735150314000002 -103.56704831999998 50.008419303199993 79.719497061372692 0.0000000000000000 0.0000000000000000 0.0000000000000000 0.0000000000000000 3.0818947887496999 3.1653128858233317 1.0834261904785247 1.0409042507218720 1372.5404361420440 1372.1969953079713 1.0408775593367690 
-25.735839375250141 -98.576052064988701 46.650461358762762 -25.735839375250144 -98.576052064988730 46.650461358762783 -536.98789941768382 4.3379995607320151e-06 1.7483294677328158e-05 -0.00026479204298122364 0.0000000000000000 3.0715808674308676e-08 4.8788291739931822e-09 3.8179930348825053e-05 0.0098255544485567545 -4.8385644667479818e-10 5.7703790839369073e-10 8.5538641297841270e-10 0.0000000000000000 -25.491879232152165 -98.487589184379729 50.982237960580505 72.292163684038698 0.0000000000000000 0.0000000000000000 0.0000000000000000 0.0000000000000000 3.0819899400035147 3.1655121738058529 1.0835304134623589 1.0409042507218715 1429.2442317769094 1428.1209957876006 1.0409277427114985 
-25.645272987194623 -104.27097838178393 106.09035512192212 -25.645272987194627 -104.27097838178393 106.09035512192212 -77.718000069785674 -3.6337635772117252e-05 0.00027641047193808946 -0.00024177920255274385 0.0000000000000000 1.5298102263851306e-05 8.5573339825255922e-07 2.8831812318459692e-05 0.018722704693753752 3.9945675872483321e-08 6.6666312761245374e-08 5.4016369753031069e-09 0.0000000000000000 -25.283559732051039 -104.23282252886388 108.75695162467670 96.378087069502698 0.0000000000000000 0.0000000000000000 0.0000000000000000 0.0000000000000000 3.1049988375845792 3.2123244670870434 1.1073196250372783 1.0512392617869482 655.96587115045224 655.96587170257033 1.0522757391979445 
-26.268257923630554 -118.09962277397297 108.03882631181109 -26.268257923630557 -118.09962277397292 108.03882631181112 1.2146707175907445 6.9980760945447635e-05 -0.00018479310233447674 -0.00017569783422566497 0.0000000000000000 1.2574915497688730e-05 -1.8491315844108395e-05 1.7870407773787948e-05 0.011200049793641404 -7.9825736470826409e-10 -9.1882177714749670e-09 -1.1050422417872283e-07 0.0000000000000000 -25.913646985361510 -118.01095136745833 110.66456878241424 88.846747377876298 0.0000000000000000 0.0000000000000000 0.0000000000000000 0.0000000000000000 3.1262997370524239 3.2564836289709413 1.1301861300376264 1.0567368766931209 618.53230393760418 618.53230253615880 1.0631693111527760 
-36.854126173153894 -112.55414621568021 109.49886741507186 -36.854126173153880 -112.55414621568023 109.49886741507181 -215.19831262331326 -0.00085005141050250004 2.9568138853692428e-05 2.2708172796477329e-05 0.0000000000000000 1.7835426058588578e-05 -3.2151038733221929e-05 1.6730702335800646e-05 0.036728741885837204 -1.8150920690572514e-08 -8.7003633861377869e-08 -1.1524988353867195e-07 0.0000000000000000 -36.236867317722961 -112.72601430119678 112.03758904139967 95.996160021407249 0.0000000000000000 0.0000000000000000 0.0000000000000000 0.0000000000000000 3.0750642824587251 3.1508487472507163 1.0757584313046991 1.0397553302192766 834.49968368009263 834.49968414107593 1.0370765606791039 
-33.916797749095785 -104.99825420082112 102.97201427978392 -33.916797749095764 -104.99825420082108 102.97201427978385 -100.52972102887173 -0.00037000826538007031 0.00021506374401336165 0.00055880884711730051 0.0000000000000000 1.5183323415969931e-05 -1.7452601360039241e-05 3.0096778667378482e-05 0.065676677604490377 3.8749964343360841e-08 -4.1516903014217123e-08 2.4674257894588067e-07 0.0000000000000000 -33.380789828628046 -105.09637623893835 105.63342596379557 85.433794965156210 0.0000000000000000 0.0000000000000000 0.0000000000000000 0.0000000000000000 3.1054469308805799 3.2129879310190721 1.1075357935583627 1.0475230800961628 543.53287799869020 543.53287719148113 1.0524175460053371 
-113.05100860799975 -161.07129046179250 122.44096804569585 -113.05100860799978 -161.07129046179253 122.44096804569585 -183.66860127578460 -5.9282176389076831e-06 2.5422324295398632e-05 -2.4182468630373605e-05 -167.28672590036695 1.0470090203162920e-07 2.2491248252709539e-08 1.9596013618006225e-05 0.0057516827934740557 -8.2124287329536929e-10 2.3413270456122359e-09 -3.2845857334594235e-09 0.0044502736352721702 -112.21942232800005 -160.66347960400000 124.66427103520003 147.55923210393107 0.0000000000000000 0.0000000000000000 0.0000000000000000 0.0000000000000000 3.0818998037739509 3.1653705719471810 1.0834794087379440 1.0409042507218713 782.57607022356922 782.57607004779527 1.0409043352322824 
-100.27824376819984 -158.48930598773961 114.13033846795462 -100.27824376819989 -158.48930598773953 114.13033846795454 -179.54237164925362 -5.3718578808722580e-05 -3.0265888303920251e-05 -3.8002676572988064e-05 0.0000000000000000 9.3878099599598044e-08 2.1763591651069447e-08 2.1633789254238419e-05 0.0077756561043916678 4.0398196681624913e-09 -1.3736377880019392e-08 6.9967944087516422e-10 0.0000000000000000 -99.532617471171264 -158.09468895943013 116.58484116745363 117.70414803503969 0.0000000000000000 0.0000000000000000 0.0000000000000000 0.0000000000000000 3.0833365715241756 3.1679859011593225 1.0846549155284679 1.0414198735789908 785.25499551965584 785.25499505433868 1.0414629946860601 
-105.12077883612218 -149.20213982170270 118.56050409060336 -105.12077883612213 -149.20213982170264 118.56050409060342 -169.36535691005494 -4.0920834132765959e-05 8.0175219529848648e-07 0.00013615745167437035 0.0000000000000000 9.7981350338782760e-08 1.9146274732317892e-08 2.0547507706858426e-05 0.0099697208793975717 6.3140829691792211e-10 -3.4915313490123235e-09 2.4707415003467916e-08 0.0000000000000000 -104.34256255272837 -148.85497981259945 120.89176065121424 119.29379793442074 0.0000000000000000 0.0000000000000000 0.0000000000000000 0.0000000000000000 3.0823631930641664 3.1661593407743140 1.0838032592566877 1.0418674158258978 779.66252946135182 779.66252980336856 1.0410576335388340 
-101.28279657521841 -162.69918404165219 122.34175228584982 -101.28279657521848 -162.69918404165219 122.34175228584988 -173.46802322363632 -1.3934327294282230e-05 -2.5572710408187936e-05 7.0498192359978339e-06 0.0000000000000000 9.4729289495942837e-08 2.2950019162859551e-08 1.9620341434212207e-05 0.0053625076082153261 1.7868858399786349e-09 1.5373981562083686e-09 -2.4103129876091738e-09 0.0000000000000000 -100.53040969477119 -162.28305471776312 124.56781543385799 141.51484144144280 0.0000000000000000 0.0000000000000000 0.0000000000000000 0.0000000000000000 3.0806638579715533 3.1627626558848747 1.0821060858539153 1.0405525280254961 751.71911190333924 751.71911201533283 1.0402426242704976 
-79.002972501620562 -149.14430245062761 86.217189136678613 -79.002972501620562 -149.14430245062755 86.217189136678613 -247.62301090765871 -0.00018155935067011399 9.1484019665656643e-05 -7.4347541161271731e-05 -244.16104640177767 7.5850847131020416e-08 1.9129993755750977e-08 2.8478124582953512e-05 -0.0040732811459555191 -2.5994428957772872e-08 -7.3354944263015431e-09 -7.5017141139945491e-09 -0.013094469191601012 -78.400527573600002 -148.79743798799998 89.448228916799977 108.06316173413846 0.0000000000000000 0.0000000000000000 0.0000000000000000 0.0000000000000000 3.0835616034827917 3.1685814819913505 1.0850266910071242 1.0409042507218715 941.52018296458243 941.52018960592557 1.0416493138007437 
-80.763657527186282 -162.95206585506659 84.494032125934453 -80.763657527186282 -162.95206585506656 84.494032125934453 -292.65751177771767 -6.6929824514344391e-06 -6.4961713816484996e-05 -1.2940669138358198e-05 -283.57858023101056 7.7342729637441821e-08 2.3021284933921748e-08 2.8900644603702119e-05 -0.0039110837370682381 -1.4837389823307795e-08 1.2407246241995887e-09 -8.2869979009744677e-09 -0.0049028292222348521 -80.149363288800018 -162.53464431600008 87.773009718400019 109.57810873427631 0.0000000000000000 0.0000000000000000 0.0000000000000000 0.0000000000000000 3.0847084725766840 3.1710062138974973 1.0863065828134226 1.0409042507218704 967.04049458966267 967.04073259516508 1.0422643978305695 
-84.937865030962655 -160.58978375593654 91.900257022281934 -84.937865030962698 -160.58978375593651 91.900257022281934 -258.52093434343766 -7.0284000141556397e-05 -3.5019395719937399e-06 -0.00014828654584896390 0.0000000000000000 8.0879683589385465e-08 2.2355536588580804e-08 2.7084630009888141e-05 0.00069988865613893536 -2.0868199149617715e-10 -1.5317480606537999e-09 -1.7040096981298542e-08 0.0000000000000000 -84.295478612813938 -160.18443337667750 94.973195224810283 106.11323630727971 0.0000000000000000 0.0000000000000000 0.0000000000000000 0.0000000000000000 3.0775058477165076 3.1566214066819733 1.0791248871006758 1.0385904591672068 878.59711564194390 878.59710021064870 1.0388031602353083 
-87.131157837143377 -151.75033026852788 89.494622509047090 -87.131157837143348 -151.75033026852782 89.494622509047090 -309.85948029401050 -0.00018491449898857775 3.4900128859574854e-05 -0.00022091857056050817 0.0000000000000000 8.2738132317627944e-08 1.9864408840053471e-08 2.7674494276652698e-05 -0.00048931500288975987 2.4981691701350320e-08 9.3826648117225301e-09 -4.0121373748136427e-08 0.0000000000000000 -86.474010682800568 -151.39014911596544 92.634484883397832 94.367740677547317 0.0000000000000000 0.0000000000000000 0.0000000000000000 0.0000000000000000 3.0743914312723120 3.1501220597159989 1.0757377308586766 1.0379553254684337 990.31908148616878 990.31907753904636 1.0371772617317629 
-26.266185874962716 -132.69369769267200 136.82138118695187 -26.266185874962726 -132.69369769267200 136.82138118695187 -61.804306214350284 6.6404886709812614e-05 -0.00012572509089487483 0.00070743213266589761 -61.284511357234585 3.1165190900184214e-08 1.4493871491882972e-08 1.6069920291350570e-05 -0.015129548333031822 -9.2783769310704984e-09 2.4266082053420730e-08 -1.6085128009588079e-07 -0.013842149284280516 -26.018656529999991 -132.43089511199997 138.64462455200004 49.421240865332216 0.0000000000000000 0.0000000000000000 0.0000000000000000 0.0000000000000000 3.0800321356420328 3.1616443631522886 1.0816305634465437 1.0434822781985320 509.89255442073778 509.89255443768519 1.0400232930301934 
-32.786860026586481 -134.22745332591487 135.74989840236952 -32.786860026586503 -134.22745332591481 135.74989840236955 -61.854251539358096 -0.00010591056819774171 -2.6738144435838571e-05 5.9229968575373983e-05 -37.246938559443421 3.6690374127790193e-08 1.4926118729885474e-08 1.6332649060757376e-05 -0.0073705996249162024 3.6538990421693001e-08 2.5178722205550710e-08 -5.7280606243780498e-08 -0.090185381966385383 -32.495446914399992 -133.95681332000001 137.60295016000006 48.530522504776933 0.0000000000000000 0.0000000000000000 0.0000000000000000 0.0000000000000000 3.0915448722347127 3.1847299239790061 1.0931726217971931 1.0461606256973492 609.58784654843157 609.58784647934601 1.0455156562514756 
-28.681991435775824 -136.72216498306145 138.53443801463999 -28.681991435775831 -136.72216498306145 138.53443801464002 -84.984450295896849 8.4978282118854264e-05 0.00017055099072216378 4.1755770637165182e-05 -110.98912348435653 3.3212184530340145e-08 1.5629173011344477e-08 1.5649876843326641e-05 -0.00036567321143547553 -3.0666237514845694e-08 -1.9520583307770211e-08 -1.2435014967952950e-08 0.018694133065536415 -28.418203856399998 -136.43877710800004 140.31002455199999 44.353383947079159 0.0000000000000000 0.0000000000000000 0.0000000000000000 0.0000000000000000 3.0805793404106301 3.1625671132988149 1.0819946419640745 1.0414751743726260 598.15277429773573 598.15277430260051 1.0401917896212269 
-27.020974521059930 -129.74949495608809 142.17399955332220 -27.020974521059930 -129.74949495608811 142.17399955332215 -158.25370952420656 1.8523196176159714e-05 0.00011453857445297197 2.8331694747075730e-05 0.0000000000000000 3.1804748362729285e-08 1.3664134657087599e-08 1.4757452306390917e-05 0.0040564984645382086 1.8409443334350220e-08 -5.9833231418613370e-10 1.6004314891467713e-08 0.0000000000000000 -26.768365491316434 -129.50173712462359 143.84833436668455 49.139845408488213 0.0000000000000000 0.0000000000000000 0.0000000000000000 0.0000000000000000 3.0889941848553040 3.1799213659132786 1.0909343552644513 1.0433201678077741 880.72568082740474 880.72568081504517 1.0444685033244030 
-40.411488353600440 -65.394980027262108 152.56821068069968 -40.411488353600440 -65.394980027262122 152.56821068069968 -314.28204126124297 0.00027516609806481617 7.9963115351730344e-06 -0.00043289448515360611 -165.77263810630501 4.3150980927331162e-08 -4.4722610614833513e-09 1.2208780150402276e-05 -0.0090699508190366582 -6.2924486750296773e-08 -1.5524198837557065e-08 1.1236641385394813e-07 -0.069476860779383962 -40.068761925200000 -65.476070995999990 153.95338104800004 156.95717166164070 0.0000000000000000 0.0000000000000000 0.0000000000000000 0.0000000000000000 3.0997759080869973 3.2017914153258995 1.1020256142387661 1.0427833700596509 973.44985183633969 973.44985183578865 1.0498257224578358 
-52.853216458520379 -59.544791086883968 147.74444822074929 -52.853216458520372 -59.544791086883954 147.74444822074929 -369.41436494184705 0.00032914256269720311 0.00025548312408071741 -0.00093419017677526261 -222.05582637790528 5.3693274243427069e-08 -6.1209614043988828e-09 1.3391572064591628e-05 0.052865143596213644 1.9307822811681398e-07 3.8938972306028213e-08 -2.0164613252212422e-07 0.097931887862433536 -52.426757905599978 -59.655776269200025 149.26381449600007 118.05125250056595 0.0000000000000000 0.0000000000000000 0.0000000000000000 0.0000000000000000 3.0898809007002588 3.1816321363472677 1.0917599400980011 1.0421244034682522 1121.3644354354597 1121.3644354347939 1.0448604847397180 
-35.482471688188845 -65.951523110050601 143.35820047459043 -35.482471688188852 -65.951523110050616 143.35820047459040 -594.06424442130651 -9.6048433870735535e-05 0.00015087120784291420 -0.00047126691713226420 -637.45871407859499 3.8974456162410576e-08 -4.3154184670157747e-09 1.4467084901603755e-05 -0.0048792515403595369 -1.3260116537177363e-09 6.9424623450696251e-09 -1.6182290260218965e-09 -0.015704076084665626 -35.172917262399999 -66.029770167599992 144.99959110400002 155.12084301790807 0.0000000000000000 0.0000000000000000 0.0000000000000000 0.0000000000000000 3.0722447536515771 3.1458587746480977 1.0736196214622624 1.0379106822839494 1701.0515467414841 1701.0515467439543 1.0361182267010351 
-50.825641332077588 -66.514759243269310 140.48206661891280 -50.825641332077574 -66.514759243269296 140.48206661891285 -612.05489262105777 0.00018331831391611445 0.00069308201419847500 -0.0013195066633296078 0.0000000000000000 5.1975245746183063e-08 -4.1566853847818663e-09 1.5172316143008400e-05 0.027201832767446737 1.0808125373628760e-07 2.6980390917838629e-07 -1.1819881130693157e-07 0.0000000000000000 -50.412828244765279 -66.590128188430739 142.20347059834828 136.07757377940416 0.0000000000000000 0.0000000000000000 0.0000000000000000 0.0000000000000000 3.0488968373067991 3.0970697100165712 1.0481670653770792 1.0306297470877048 1489.4019021641764 1489.4019021494717 1.0238070056947561 
-95.271651051994894 -159.11456321783189 74.057548605700916 -95.271651051994908 -159.11456321783186 74.057548605700930 -490.53548763025623 -0.00014173484412193240 2.8189236277707442e-05 -0.00014451097533466892 -514.24052588545965 8.9635846939328800e-08 2.1939806915671767e-08 3.1459682007017882e-05 0.0061925108606028772 7.8810654794711149e-09 -1.4096229219326012e-08 2.6310730540784010e-09 0.0027694567387253205 -94.559718839999974 -158.71675115199997 77.626866652000004 109.98746742214213 0.0000000000000000 0.0000000000000000 0.0000000000000000 0.0000000000000000 3.0817240796185450 3.1649640765217408 1.0832480649349097 1.0409042507218720 1371.4335598318135 1371.4335656065593 1.0407923683651104 
-90.361023442687966 -158.86293143425300 79.006720529892718 -90.361023442687994 -158.86293143425297 79.006720529892704 -363.38341232298092 -0.00025508182976972070 0.00032274594777874398 -0.00010393907537740588 -295.94679971056848 8.5474906347249302e-08 2.1868884536591082e-08 3.0246139536949102e-05 0.0031315482087535076 5.6903328261121938e-09 -9.8903395306689672e-09 3.1199877688803059e-09 0.0040286445252026414 -89.682139475999989 -158.46640519600001 82.438353807199988 112.88451412247700 0.0000000000000000 0.0000000000000000 0.0000000000000000 0.0000000000000000 3.0818356738334649 3.1651600027017390 1.0833321940359517 1.0409042507218731 1057.3449014145535 1057.3449024668464 1.0408308393306009 
-103.47702047858989 -155.32247329427454 83.296698906041200 -103.47702047858989 -155.32247329427449 83.296698906041186 -480.22293196352450 -1.8198396022263618e-05 0.00011680380242501189 -8.7208067954967428e-05 0.0000000000000000 9.6588539583164503e-08 2.0871122996535263e-08 2.9194232051388269e-05 0.0047885520270634866 9.6286198949260151e-10 6.8507277662163181e-09 3.5701821302573989e-08 0.0000000000000000 -102.70986659571734 -154.94403864466588 86.608986019839278 111.02505284862640 0.0000000000000000 0.0000000000000000 0.0000000000000000 0.0000000000000000 3.0818503348673687 3.1652040745377366 1.0833612936819188 1.0397735916955810 1367.4454097251678 1367.4454422440513 1.0408459559014498 
-101.15861582787541 -167.61516304381138 80.273688616036310 -101.15861582787544 -167.61516304381138 80.273688616036296 -367.89764342121873 -0.00017599076908410838 0.00015250994836057906 -0.00027022953164720128 0.0000000000000000 9.4624065444248742e-08 2.4335432391442428e-08 2.9935477548370674e-05 0.0053729862902981134 2.2686174345771674e-09 1.8466031014138524e-09 -9.6995521006460300e-09 0.0000000000000000 -100.40706467681501 -167.17391327890167 83.670075146830683 105.53983917324770 0.0000000000000000 0.0000000000000000 0.0000000000000000 0.0000000000000000 3.0825753217379872 3.1667324884859909 1.0841658385590447 1.0405851075664061 1049.6391337584394 1049.6391101142547 1.0412321867999912 
-115.47194126346911 -99.901085170723803 93.545084362888900 -115.47194126346909 -99.901085170723803 93.545084362888915 -289.82824663305036 -2.8592639229389916e-06 -3.2413885967630446e-05 6.1606183375240942e-05 -271.75480153093497 1.0675224090817004e-07 5.2522501348128969e-09 2.6681316517951359e-05 0.0089893779556563438 3.5463971242136308e-09 4.5024243479412277e-09 1.7366620397080655e-08 0.0084854952290041429 -114.62406224400000 -99.805851428000011 96.572263865600007 85.211636250682801 0.0000000000000000 0.0000000000000000 0.0000000000000000 0.0000000000000000 3.0824666467268473 3.1664656383532397 1.0840073529208265 1.0408609296852285 957.88532767446657 957.88560390793953 1.0411556870272705 
-111.91147942925460 -91.148148587280957 97.298508360217838 -111.91147942925456 -91.148148587280957 97.298508360217824 -298.24928101535608 3.2622882183511070e-05 2.7120058094689972e-05 0.00014002283319981761 -326.33855199429132 1.0373534162222420e-07 2.7854963335904870e-09 2.5760972761190718e-05 0.010605998099318701 -3.8340225137267457e-10 -1.1818811370470783e-08 3.3700621346144547e-08 -0.0019524283365331479 -111.08756211600000 -91.097641973600034 100.22126851279998 99.535403830130534 0.0000000000000000 0.0000000000000000 0.0000000000000000 0.0000000000000000 3.0816594693158956 3.1646999067171389 1.0830470718092382 1.0410484005227507 1011.4369958269739 1011.4370854836130 1.0406946505267514 
-113.74057507521570 -97.739995555847599 105.69771506532769 -113.74057507521570 -97.739995555847599 105.69771506532767 -275.15682325098754 3.2575571910008310e-05 0.00013832053755289867 -9.0789324968566733e-05 -337.95990300567075 1.0528519531205484e-07 4.6432096501014533e-09 2.3701477915416547e-05 0.014127700615762255 5.9521647265910150e-09 2.4044494501058931e-08 -1.3707157156357058e-08 0.0097905820113188911 -112.90434805199999 -97.655804887999992 108.38681131359999 128.09762094244454 0.0000000000000000 0.0000000000000000 0.0000000000000000 0.0000000000000000 3.0807155653368716 3.1628970277108754 1.0821898036866420 1.0416495020434633 1029.9783954331176 1029.9783740884034 1.0402920303919301 
-107.95193611096892 -103.95716142496374 97.636816508405687 -107.95193611096889 -103.95716142496380 97.636816508405744 -300.21276789128552 -4.1263373857631499e-05 -8.0533099219702573e-05 9.4021583635348465e-05 0.0000000000000000 1.0038028583347902e-07 6.3953382034576115e-09 2.5678019224706361e-05 0.014800684198035263 -2.8332806870912289e-08 9.1601630332458708e-09 -2.3756994253433264e-08 0.0000000000000000 -107.15466629968294 -103.84120130723400 100.55016500991876 102.24201981555134 0.0000000000000000 0.0000000000000000 0.0000000000000000 0.0000000000000000 3.0799271272547721 3.1613428086424977 1.0814232466138884 1.0406064478461379 962.34551291647824 962.34550889024183 1.0399115855100372 
-27.234837203938419 -115.45874186659587 100.52933835110758 -27.234837203938433 -115.45874186659593 100.52933835110754 -14.878759986310364 0.00014130770732322971 -7.9057807696060939e-05 -8.6315772567739521e-05 0.0000000000000000 1.2442838968755442e-05 -2.1360525288835116e-05 2.6450362780354706e-05 0.014990543255604689 6.5830774401248515e-09 -7.9312794787048507e-08 9.4519602674837767e-08 0.0000000000000000 -26.889884864405381 -115.37486796036181 103.37575244326078 96.382960025775517 0.0000000000000000 0.0000000000000000 0.0000000000000000 0.0000000000000000 3.1194795152551751 3.2423308735621683 1.1228511604674649 1.0556506696522570 628.32054355154139 628.32054499202832 1.0596466480089000 
-110.38195788802817 -103.73660645533189 150.76203208385843 -110.38195788802817 -103.73660645533188 150.76203208385840 -97.574562713382932 -2.2868344069775724e-05 -4.9504669754737048e-05 -4.7383760080209483e-05 -100.98373197544470 1.0243931655717908e-07 6.3331809241340417e-09 1.2651657153028850e-05 -0.00026462824715196902 5.2587783684774946e-10 7.4876691491974117e-09 -9.1741357172000944e-09 -0.0039506997846263025 -109.56833416800004 -103.62177336400003 152.19744990400002 70.302883591683823 0.0000000000000000 0.0000000000000000 0.0000000000000000 0.0000000000000000 3.0772285298065110 3.1557465006327994 1.0785244317138383 1.0410492645941722 612.86009772540092 612.86009771960573 1.0385235029828583 