# For a description of the Tecplot format see the Tecplot User's guide.
#
Variables=x,y,z,s_u,s_v,s_w,s_p,mono_f_vel_u,mono_f_vel_v,mono_f_vel_w,const,u_nu,v_nu,w_nu,p_nu,x_nu,y_nu,z_nu,const,u_ref,v_ref,w_ref,vol_ref,x_ref,y_ref,z_ref,const,I1,I2,I3,J,p1,p2,p3
Zone f=fepoint, n=1339, e=6475, et=brick, c=black
-59.1802 -70.4128 175.539 -59.180238774394894 -70.412806681519655 175.53943630443754 -121.59127134233489 7.8652259382953543e-08 -1.5917037278416575e-07 1.0838504537266436e-06 -122.79774454722563 3.6547537218822868e-10 -1.4362289135760875e-11 1.6876856534508991e-07 -0.00016307553909224173 8.0047496067381670e-13 -1.9352658486073947e-12 3.1082236690657772e-12 -0.00016184217556533068 -58.668039002000000 -70.473359259200009 176.35421013599998 215.13583165143561 0.0000000000000000 0.0000000000000000 0.0000000000000000 0.0000000000000000 3.0908915808167832 3.1836873071839009 1.0928072700948583 1.0447973263967343 556.53610199654770 556.53540864569391 1.0453756609234348 
-65.521929525562683 -76.387474483827418 183.45005829740001 -65.521929525562669 -76.387474483827418 183.45005829740006 -127.48907990675231 -4.4203775377100857e-06 -5.7148060343216070e-06 6.0617660847283089e-06 -127.64353849094590 3.9873448987037818e-10 -6.4505623065258533e-12 1.1898925134090635e-07 -0.00016163514216459694 1.2878448907619945e-12 2.2212984757017527e-12 -4.0339497091449615e-12 -0.00016029555861902771 -64.963123215600007 -76.414687385200040 184.02450960799996 253.42820447565578 0.0000000000000000 0.0000000000000000 0.0000000000000000 0.0000000000000000 3.0923479142154209 3.1866869446277666 1.0943515713204148 1.0447973263967343 571.94621356301082 571.94629190971148 1.0461160931935058 
-70.257199502190502 -71.529826824480097 176.44954738068060 -70.257199502190488 -71.529826824480097 176.44954738068057 -123.37268244617876 -3.1407646389112185e-06 -8.7691065076079442e-07 2.1752823059015650e-07 -126.29676688891480 4.2357117813196510e-10 -1.2892853451518249e-11 1.6304150030066467e-07 -0.00016170719232136142 3.6812525273590284e-12 -6.6547057668621436e-13 2.6871427500411520e-12 -0.00016014684162134259 -69.663592608799988 -71.584146237200002 177.23667228800005 218.29881668600640 0.0000000000000000 0.0000000000000000 0.0000000000000000 0.0000000000000000 3.0931015388172010 3.1882144756162032 1.0951256493324943 1.0447973263967341 567.55994122692675 567.55968636530702 1.0464873852175525 
-57.666077133956904 -87.763039033504668 170.70932753175069 -57.666077133956883 -87.763039033504697 170.70932753175083 -113.59315177203962 -4.1326742791799969e-06 6.6616704891168263e-06 1.5692498841661261e-05 0.0000000000000000 3.5753405791538739e-10 8.6015083944346316e-12 1.9916309224043971e-07 -0.00016969385764925479 8.2722747267939703e-14 -1.2177546562987158e-11 -6.4765360493092278e-12 0.0000000000000000 -57.165005282198301 -87.726774323660578 171.67083873969227 259.76550921814646 0.0000000000000000 0.0000000000000000 0.0000000000000000 0.0000000000000000 3.0840619037867181 3.1696166919948330 1.0855613389405858 1.0426101843880575 517.98816356069233 517.98850170614617 1.0419004678133776 
-89.634358806409381 -83.389783568821002 114.44202381484806 -89.634358806409381 -83.389783568821017 114.44202381484807 -100.96784103600159 1.6276620449748878e-07 1.1254776269477536e-05 -5.4541517593105996e-06 0.0000000000000000 5.2518100979170868e-10 2.8204660829089789e-12 5.5323740788537645e-07 -0.00019121104986280100 1.6634117593322750e-11 -2.0481251393743566e-12 -6.4820631330457145e-12 0.0000000000000000 -88.898344731952406 -83.377922378373768 117.11292023788836 283.91631954144174 0.0000000000000000 0.0000000000000000 0.0000000000000000 0.0000000000000000 3.0847714537685254 3.1708955556449472 1.0861293115388735 1.0428291032162806 495.87997161924784 496.27570367411670 1.0421741694123343 
-98.396098896806365 -66.821105744720271 105.27063057705358 -98.396098896806379 -66.821105744720271 105.27063057705359 -119.59570734032910 5.0544904374226311e-07 4.4554145689488277e-06 -2.3859806959093039e-05 -123.04456943494105 5.7112414797444444e-10 -1.9125978578671265e-11 6.1095040848613280e-07 -0.00021378772462668464 -8.5367575190647635e-13 5.8759405457136099e-12 -3.9877374858019740e-11 -0.00021142405753294110 -97.595692787999965 -66.901700632800015 108.22015140479995 322.25788568967050 0.0000000000000000 0.0000000000000000 0.0000000000000000 0.0000000000000000 3.0919577850734501 3.1859392927265202 1.0939943675251542 1.0447973263967343 556.35710681658099 555.08717915445561 1.0459447652098819 
-80.330168291094267 -67.454389112416635 105.67834008461418 -80.330168291094239 -67.454389112416649 105.67834008461416 -117.14372809823266 -5.4842676061207104e-06 5.5930447363186514e-06 -1.0603294350513644e-05 0.0000000000000000 4.7638992750620456e-10 -1.8284984637517709e-11 6.0838480031577536e-07 -0.00021156785386246702 -3.6499830759500104e-12 -9.4024452550142758e-12 -4.0537749835858153e-11 0.0000000000000000 -79.662532843379708 -67.531450170133141 108.61547480962874 295.38956150422752 0.0000000000000000 0.0000000000000000 0.0000000000000000 0.0000000000000000 3.0867677925074322 3.1751799772951590 1.0884208813016973 1.0433835285528719 533.66582675284974 532.38276803450015 1.0432717514470580 
-95.255110145191267 -81.842731924280386 105.68951291910072 -95.255110145191310 -81.842731924280372 105.68951291910072 -113.87237326824727 -8.1014100986059827e-06 7.7333513282334058e-06 -1.7927102001873154e-05 0.0000000000000000 5.5466009563076568e-10 7.6694206541105814e-13 6.0831449388842884e-07 -0.00022292721208326874 -7.2589749410505970e-12 -2.9088576375991831e-11 -6.9885488408038151e-11 0.0000000000000000 -94.477787882002133 -81.839503548705352 108.62630821647583 293.80807890400462 0.0000000000000000 0.0000000000000000 0.0000000000000000 0.0000000000000000 3.0868290011914885 3.1752261561661133 1.0884050035704282 1.0433554248484689 523.98472630681874 524.04694572252208 1.0432640029622957 
-47.774573837617019 -126.19586238359699 136.71945833673948 -47.774573837617019 -126.19586238359705 136.71945833673948 -50.752893948535579 1.4893979026882231e-06 3.9692312270282383e-06 1.1420716588521769e-05 0.0000000000000000 -1.6898345802550232e-08 -3.4948160181322749e-08 2.3327571891166324e-07 -0.00017487370846452812 7.1320760506395255e-12 -7.8698621658484192e-12 -2.6560577203087742e-12 0.0000000000000000 -47.292355390977058 -125.96433165720771 138.67232254046354 244.31333887135355 0.0000000000000000 0.0000000000000000 0.0000000000000000 0.0000000000000000 3.0973644480616507 3.1972086361427183 1.0998628537181785 1.0489865797070135 457.45537868425021 457.45556509000022 1.0487432810123876 
-34.549677204463798 -140.77186625245818 137.24468908758067 -34.549677204463812 -140.77186625245815 137.24468908758070 -50.286546033028337 7.4892125886865174e-06 -3.1589943650384535e-07 5.6280730065278744e-06 0.0000000000000000 -5.4997381304953795e-10 -2.0779622965263834e-08 3.4003158276680445e-07 -0.00018206997967700703 1.9351242864963828e-11 -1.9644404011086717e-11 -5.2454341021048610e-12 0.0000000000000000 -34.196989160350306 -140.43319657724166 139.21506628885933 210.16870282748488 0.0000000000000000 0.0000000000000000 0.0000000000000000 0.0000000000000000 3.0960021061517158 3.1943557585216329 1.0983700138551713 1.0480721867780072 452.29835408580465 452.27688428873381 1.0480322170912695 
-31.255202194222473 -127.90137957915636 140.86032727663232 -31.255202194222448 -127.90137957915624 140.86032727663226 -57.817855264422903 5.4442040016502485e-06 2.3566038436102928e-06 1.2728488203226845e-05 0.0000000000000000 2.1903939773082470e-10 6.1746607826762556e-11 3.8699446225365369e-07 -0.00017450180616735098 9.1269704771305387e-13 -4.9122192315864618e-12 -1.8669357376032376e-11 0.0000000000000000 -30.948229910445860 -127.64113600963313 142.72864290474456 229.21992526850030 0.0000000000000000 0.0000000000000000 0.0000000000000000 0.0000000000000000 3.0933475866963378 3.1888391644434608 1.0955056085866339 1.0470059584287661 455.98788460989823 455.99212727283327 1.0466634602104647 
-48.894425165102646 -131.16516050220145 145.15217611481452 -48.894425165102646 -131.16516050220150 145.15217611481455 -51.537469106030954 5.7859738589887204e-06 1.5271029143175042e-05 -5.5751472903189083e-06 0.0000000000000000 -9.5513443228202765e-09 -1.7371983247444681e-08 2.1989172109909117e-07 -0.00016858905701253819 2.5145331191604284e-12 1.3059682765601217e-11 -1.3619025214028379e-11 0.0000000000000000 -48.406431667502837 -130.90513559487593 146.85896726379221 225.63426853136377 0.0000000000000000 0.0000000000000000 0.0000000000000000 0.0000000000000000 3.0985447524203718 3.1995931044066643 1.1010667895773159 1.0490569027075689 459.18379673492552 459.18342193898445 1.0493172701656592 
-53.479880576481605 -84.906312428674156 73.706361379426937 -53.479880576481634 -84.906312428674184 73.706361379426895 -111.03441040774693 -3.9855322419166478e-06 4.4320339325329075e-05 -7.7429338738111095e-05 0.0000000000000000 5.0056750788649093e-09 -2.7170469665752491e-07 5.3004488721197200e-07 -0.00052729456207984359 -3.1262839753561694e-11 -8.7599604459989484e-10 -1.8322629974127213e-10 0.0000000000000000 -53.009977022357148 -84.940192361847963 77.707205907375524 356.07450292316213 0.0000000000000000 0.0000000000000000 0.0000000000000000 0.0000000000000000 3.0894290162614144 3.1806078723284275 1.0911873958038738 1.0444809622643605 508.45554668387433 508.35362627835627 1.0445897694334152 
-40.684643649283132 -85.660576370785563 63.218995544742540 -40.684643649283110 -85.660576370785563 63.218995544742498 -161.94788348182541 1.2608337617422156e-06 1.2485399490223464e-05 -4.3084541760904600e-05 0.0000000000000000 -3.5888701016016174e-08 -4.7120394460139579e-08 8.7516012250103722e-07 -0.00043353909757512244 -1.2426216307404071e-10 -9.4641168683353379e-11 1.9799526218900038e-10 0.0000000000000000 -40.313282635619565 -85.652866469445740 67.489144002613742 334.72004880612383 0.0000000000000000 0.0000000000000000 0.0000000000000000 0.0000000000000000 3.0849752416157470 3.1716617200052517 1.0866961651681450 1.0432958565099617 606.37696107042200 606.37745715237395 1.0424445516650775 
-43.305282609084472 -94.100415629762978 79.473321410368428 -43.305282609084465 -94.100415629762978 79.473321410368442 -93.128889143725274 4.4744698135241217e-05 8.9716929303980712e-06 -3.1651367871115791e-05 0.0000000000000000 -9.4801632316912208e-08 -1.1348370143243562e-08 3.8688074629476486e-07 -0.00044148902417100216 -4.8225817506220531e-10 -4.4203458754268977e-11 -6.3743102479314204e-10 0.0000000000000000 -42.930125987095458 -94.071309017270835 83.274511392489799 283.94561953274422 0.0000000000000000 0.0000000000000000 0.0000000000000000 0.0000000000000000 3.0911613862976193 3.1842292984907057 1.0930787849884007 1.0447386513012149 492.44064355862008 492.50544496360988 1.0455015991620895 
-45.356944523967776 -99.069071446220832 63.806366013707098 -45.356944523967762 -99.069071446220775 63.806366013707070 -131.46776767341211 3.5336820186084036e-05 2.1642007505591052e-05 -6.6392102895071123e-05 0.0000000000000000 2.9298974357772073e-10 2.3571922191933936e-11 8.7187336728078435e-07 -0.00045306541813552534 2.5233328251870795e-11 1.3895238596778981e-10 4.4603259910227526e-10 0.0000000000000000 -44.946335306532468 -98.969717126470769 68.015559797458934 339.42980011114588 0.0000000000000000 0.0000000000000000 0.0000000000000000 0.0000000000000000 3.0896319116334081 3.1812804025665562 1.0916619645364500 1.0444247007024010 555.86876271616848 555.86477889832850 1.0448227923611986 
-35.988356927441316 -100.92676989801768 71.344170992706040 -35.988356927441338 -100.92676989801765 71.344170992706040 -123.94650140304408 2.5526189628592772e-05 1.3994419488181399e-05 -3.1237489460319178e-05 0.0000000000000000 -7.3976703678195480e-08 5.3615892950402427e-08 7.1839979232816371e-07 -0.00041372363630443797 -2.3254033427775355e-10 1.4825529999793850e-10 -9.3216818881739598e-11 0.0000000000000000 -35.672109309640206 -100.83293553867907 75.360366609178811 338.44965823895870 0.0000000000000000 0.0000000000000000 0.0000000000000000 0.0000000000000000 3.0832162006575978 3.1680556549441219 1.0848485701545245 1.0431055997693390 533.45787050417482 533.44261517763653 1.0415596221378332 
-49.416234931813854 -112.16450589348305 61.091471424502764 -49.416234931813854 -112.16450589348302 61.091471424502750 -115.92469517413485 4.8639127410948274e-05 1.4376299056088478e-05 -3.9132034914637788e-05 -96.116659794973899 3.1427621616231249e-10 4.0911718457437012e-11 8.8895743832750906e-07 -0.00033892907975728196 1.5090205682906008e-10 -8.6808540861780717e-11 1.5530662603941995e-11 -0.00026999106631295277 -48.975793059600008 -111.99207679200002 65.383142959360015 326.57209562220959 0.0000000000000000 0.0000000000000000 0.0000000000000000 0.0000000000000000 3.0897165987304906 3.1812152320712150 1.0915083527289442 1.0446866237123680 532.50670146391178 532.50653357281658 1.0447490070033945 
-25.504244033173837 -110.64582594615078 63.243358566573086 -25.504244033173823 -110.64582594615069 63.243358566573093 -151.63483786526407 8.9481140952566594e-06 8.1584138634486984e-06 -3.6145167748052794e-05 0.0000000000000000 1.8888021702245797e-10 3.8899328203001460e-11 8.7541621596187735e-07 -0.00034253035952465334 -2.6387798610192585e-11 3.6389688307384966e-11 -6.5464361860326187e-12 0.0000000000000000 -25.239536857883341 -110.48187134057846 67.469656361758609 349.35568362690350 0.0000000000000000 0.0000000000000000 0.0000000000000000 0.0000000000000000 3.0870517340934787 3.1758687798790803 1.0888273458238487 1.0437790406976606 597.09325273437560 597.09624798200491 1.0434675322187064 
-44.480017225668611 -111.43697089531233 72.507547754887725 -44.480017225668618 -111.43697089531227 72.507547754887753 -96.797943715773698 2.5498086361003305e-05 -2.2342017350582770e-05 -1.8955150236282850e-05 0.0000000000000000 2.8838709198453216e-10 3.9942049667729407e-11 8.1711928068273220e-07 -0.00033657115396767588 4.7287789753860010e-11 4.0102435250120876e-11 -1.7845312725679772e-10 0.0000000000000000 -44.075852747763513 -111.26860156453857 76.452402029906395 268.59635586333832 0.0000000000000000 0.0000000000000000 0.0000000000000000 0.0000000000000000 3.0924642691858488 3.1870670649040376 1.0946172160480783 1.0445501154905654 513.00270396359895 513.00069697898482 1.0462407592887819 
-58.822784868437125 -106.68686584375948 102.27813137306788 -58.822784868437118 -106.68686584375942 102.27813137306792 -42.388008828739473 8.3391978812213686e-06 2.7306885110551088e-05 1.2248374004986790e-06 0.0000000000000000 -1.0806640733520366e-08 -4.6735669249146648e-08 3.3887080700348393e-07 -0.00021253735986768348 9.8167591460721536e-12 3.4934393278583727e-11 -5.3973150787561554e-11 0.0000000000000000 -58.254647241440821 -106.62760994408018 105.33920711112118 241.62621693813244 0.0000000000000000 0.0000000000000000 0.0000000000000000 0.0000000000000000 3.1020908041672377 3.2068435703000655 1.1047735006861965 1.0505631431492477 453.24152521662296 453.27106800789073 1.0510814565306104 
-64.993304352963392 -90.042738433343899 93.313170321410865 -64.993304352963392 -90.042738433343871 93.313170321410837 -72.948067503742536 -1.4248275151000383e-05 6.4246647735349010e-06 2.4008646394601481e-05 0.0000000000000000 -4.4271024232641405e-09 1.3143616234141751e-08 3.8160836655906122e-07 -0.00026114511070850243 -1.3557774593596298e-10 3.7637185311390263e-11 6.0903792157083533e-11 0.0000000000000000 -64.370648572599308 -90.090304358695661 96.688480747766732 239.98138923263960 0.0000000000000000 0.0000000000000000 0.0000000000000000 0.0000000000000000 3.0954986328762377 3.1931243990850202 1.0976374422541861 1.0460036553724514 474.89394179889695 474.96210017072610 1.0476757424018583 
-76.638796916740134 -99.734012714624640 98.110883654313838 -76.638796916740105 -99.734012714624583 98.110883654313852 -65.795333628226373 -2.3849035643739670e-05 2.8783495898165439e-05 -6.5197419894311544e-06 0.0000000000000000 -3.2967321731345412e-08 -3.0352001989152777e-08 4.2715034158862286e-07 -0.00026102882243492003 -5.0186154530930897e-11 6.1611479125867940e-11 -9.3767630564308978e-11 0.0000000000000000 -75.913673002404863 -99.702254402691466 101.32606574872912 288.13617662859207 0.0000000000000000 0.0000000000000000 0.0000000000000000 0.0000000000000000 3.0976233364586108 3.1975756980480985 1.0999680996961920 1.0475433918833492 472.86135838200420 472.86992933164805 1.0487968894626472 
-55.704930842861955 -93.564932825662552 100.18450436088271 -55.704930842861963 -93.564932825662552 100.18450436088276 -67.749338723663115 -7.9044254642935692e-07 1.5022994045498267e-05 9.8549166211623012e-06 0.0000000000000000 1.0557157904038066e-08 -1.5203081493509010e-08 3.1091037892538272e-07 -0.00022694716657630461 -6.5370946428705035e-12 -3.5771936764456569e-11 2.1006739413701105e-11 0.0000000000000000 -55.164710769962618 -93.586508083202432 103.32606452766413 222.68531933077850 0.0000000000000000 0.0000000000000000 0.0000000000000000 0.0000000000000000 3.0956653522503021 3.1933735589179353 1.0977197737819313 1.0474464468861722 483.21744175250626 483.05848406874969 1.0477217342582070 
-46.179431686178120 -176.42682922739280 154.18565936980414 -46.179431686178098 -176.42682922739280 154.18565936980403 -52.219850000258759 -1.3403532929826060e-05 -1.4594801239339367e-05 2.9317534060711400e-05 0.0000000000000000 2.9730284900608694e-10 1.2598877496827754e-10 3.0314189469748953e-07 -0.00016854300052372974 2.9916659480676388e-11 6.6095110412144468e-12 -2.1199251447366578e-11 0.0000000000000000 -45.762777822239421 -175.89580528354742 155.64915507299250 248.91339099022119 0.0000000000000000 0.0000000000000000 0.0000000000000000 0.0000000000000000 3.0961377366912655 3.1943509409470758 1.0982257498680108 1.0469781593776217 441.40421390294262 441.30822329771752 1.0479608690295636 
-51.894148074941008 -186.14808162406212 167.08200567134395 -51.894148074941008 -186.14808162406212 167.08200567134395 -59.740205719217364 1.3315462024434558e-06 -2.0959156036482708e-06 -1.5331379370565571e-06 -63.474513965896897 3.2726921173065193e-10 1.3887779815036081e-10 2.2198879801038629e-07 -0.00014824984344450392 -4.0415923810219039e-13 -8.6530996144518257e-12 -8.7394584217519028e-12 -0.00014848125154531873 -51.435495451599998 -185.56281141599996 168.15371392000000 294.81703600272857 0.0000000000000000 0.0000000000000000 0.0000000000000000 0.0000000000000000 3.0890781865080919 3.1799721112008386 1.0909046050343369 1.0448668935969063 439.95560129101347 440.28502984596531 1.0444646219793214 
-43.069805448629417 -171.68179980808367 165.14108410314631 -43.069805448629417 -171.68179980808367 165.14108410314626 -57.864065441417587 2.2572675340110133e-06 -2.2318681523349544e-06 7.3602352763272672e-06 0.0000000000000000 5.0436495992921000e-09 2.4442114950907789e-08 2.1546041591503333e-07 -0.00015602899489793496 1.0623037281669291e-11 1.7431118721753749e-11 -6.5962055145397200e-12 0.0000000000000000 -42.672974891599750 -171.18173466392949 166.26923354793541 271.88244999766295 0.0000000000000000 0.0000000000000000 0.0000000000000000 0.0000000000000000 3.0901604804934522 3.1821976157832434 1.0920484623749152 1.0453305124682086 438.22895081278517 438.35830510675561 1.0450114694872150 
-59.900226044821409 -178.56031254562913 156.35296243013170 -59.900226044821451 -178.56031254562913 156.35296243013178 -63.928136299213598 -7.8970377510081376e-06 -2.7921669943063545e-06 -1.1425792802508457e-06 0.0000000000000000 3.6925235091800351e-10 1.2881351540983133e-10 2.8950364594493294e-07 -0.00015656358433642858 -6.6647680117747239e-13 3.1265004983571276e-12 -5.4673549289577617e-12 0.0000000000000000 -59.382734921100123 -178.01738339707751 157.75061606229067 243.94852352315442 0.0000000000000000 0.0000000000000000 0.0000000000000000 0.0000000000000000 3.0898107902357008 3.1814141820501094 1.0916134586310697 1.0452513673065875 448.09201416178621 448.01283976486951 1.0448036945377845 
-30.967821162180925 -102.81845124041887 91.931302593930553 -30.967821162180936 -102.81845124041882 91.931302593930525 -60.007684520299925 1.2054085761645962e-05 2.1703806935222989e-05 -5.1349597271098904e-05 0.0000000000000000 7.0089078394922076e-08 -7.4934751154299187e-08 5.2726690627011249e-07 -0.00034909156703110414 1.3752357456923379e-10 -4.2318653616168861e-10 -5.2805232076197027e-12 0.0000000000000000 -30.660097366607719 -102.72526557899965 95.328291536857705 204.58703120518373 0.0000000000000000 0.0000000000000000 0.0000000000000000 0.0000000000000000 3.0953137821544185 3.1925868401458364 1.0972832363220277 1.0469417300819353 456.33685766722868 456.36583034238885 1.0475113780456364 
-19.021283966841484 -111.07228545445965 89.938737113262349 -19.021283966841491 -111.07228545445967 89.938737113262363 -86.889792958784355 2.1227211653123411e-05 1.6675387771942692e-06 -4.5017935456689025e-05 0.0000000000000000 1.5488371696292802e-10 3.9459657763529776e-11 7.0742970503800962e-07 -0.00034595825248522831 -2.6046838250768204e-10 -8.3287740208921946e-12 1.3314579720774465e-10 0.0000000000000000 -18.804221549666405 -110.90595113131390 93.354036648627854 267.24800799435923 0.0000000000000000 0.0000000000000000 0.0000000000000000 0.0000000000000000 3.0890868104316480 3.1798772410486005 1.0907996091556342 1.0448490182463095 494.13999894223167 494.13310023112223 1.0444152285774779 
-34.123683643773958 -104.82972826686465 81.269309171771482 -34.123683643773944 -104.82972826686458 81.269309171771496 -92.130981121052500 2.1484608850704841e-05 -3.1700317126615441e-06 -3.6636820126064214e-05 0.0000000000000000 5.2680693013585447e-08 7.1939201618856027e-09 6.3308333114792775e-07 -0.00032002246626172231 1.0633042961406359e-10 1.6700562411379532e-12 4.0105324390110177e-11 0.0000000000000000 -33.815892125380543 -104.71065599625929 85.007910193808286 270.69679205096202 0.0000000000000000 0.0000000000000000 0.0000000000000000 0.0000000000000000 3.0859533039563440 3.1736679804567376 1.0877251045773917 1.0440122139295067 486.40052776511214 486.38711168603180 1.0429366822703645 
-19.139112085278388 -100.48694745584014 92.046807049993859 -19.139112085278388 -100.48694745584015 92.046807049993902 -75.179683190783166 7.7391332190637101e-06 -1.9133410242034168e-06 -1.2332352911857571e-05 0.0000000000000000 1.5550091769789276e-10 2.5445423545988891e-11 6.9416420789281119e-07 -0.00029850829926586416 -8.7368273875504410e-11 -8.7494347530324279e-11 -2.9146421872921406e-11 0.0000000000000000 -18.921183722278450 -100.37968114352928 95.398064000337470 185.31956687594098 0.0000000000000000 0.0000000000000000 0.0000000000000000 0.0000000000000000 3.0908090038173466 3.1833558937407953 1.0925561328659923 1.0450690283528872 476.94109709355666 476.99613979922128 1.0452568724634816 
-31.424946392291666 -118.16743171924179 172.32764235644362 -31.424946392291652 -118.16743171924188 172.32764235644359 -79.550025415531366 2.1365210723812433e-05 2.1591393627591629e-05 9.0123109308190450e-06 0.0000000000000000 -1.1937735894101854e-08 -1.0509090336751999e-08 1.9258979350489119e-07 -0.00020896524878838901 -3.0544725971455742e-11 -4.5200602346427397e-11 2.9096890573047502e-11 0.0000000000000000 -31.124431206993112 -117.97934695114738 173.21200361760444 258.17126679857051 0.0000000000000000 0.0000000000000000 0.0000000000000000 0.0000000000000000 3.0907817047797383 3.1833841770514884 1.0926123166032593 1.0455866545095363 478.98032135763549 478.98132574331237 1.0452812566185266 
-30.948220264467871 -133.41492903396471 163.64404138237046 -30.948220264467867 -133.41492903396468 163.64404138237032 -64.134185543034349 1.7516305363066332e-05 5.1199695960489822e-07 -2.9716810662382408e-08 0.0000000000000000 -1.8024340689190332e-08 1.1770490988275606e-08 2.4647747198909742e-07 -0.00017533377827076528 -9.9963123299589889e-12 2.0803922718746890e-11 4.3114224234166354e-12 0.0000000000000000 -30.642131568542830 -133.13454878399213 164.80820313575899 262.24283076768535 0.0000000000000000 0.0000000000000000 0.0000000000000000 0.0000000000000000 3.0929292299642794 3.1878881144091893 1.0949715653923304 1.0465953178307217 461.49823920623373 461.49806896978271 1.0464082657425491 
-43.084419153898942 -120.27890573751861 162.54660443201840 -43.084419153898935 -120.27890573751860 162.54660443201831 -53.509852906767485 3.0401302269979801e-05 1.6900361632206962e-05 7.2290040467186789e-06 0.0000000000000000 -2.0025392136278418e-08 -1.9950852078774051e-08 2.4867858450368674e-07 -0.00020630196669550385 -3.5125135062891882e-11 3.4652965559604694e-12 1.1700304143645805e-10 0.0000000000000000 -42.676694985445003 -120.10595080876966 163.70375490782192 268.28772502602959 0.0000000000000000 0.0000000000000000 0.0000000000000000 0.0000000000000000 3.1010137686294801 3.2045515423838351 1.1035558002706585 1.0492012881341224 459.65639305836345 459.65478855971571 1.0505024800628275 
-24.000982691817359 -114.41897689596554 160.54239158614848 -24.000982691817367 -114.41897689596547 160.54239158614840 -80.886856834015674 1.0052030223102573e-05 7.7749710628835633e-06 1.0111671231259181e-05 0.0000000000000000 1.8099624576883855e-10 4.3895775903024514e-11 2.6314076606581693e-07 -0.00017591370079387181 -5.3555456360026392e-12 -1.1998337341865896e-12 1.4627217606633761e-11 0.0000000000000000 -23.747323328369049 -114.23396745764113 161.81277151251504 321.01516800445251 0.0000000000000000 0.0000000000000000 0.0000000000000000 0.0000000000000000 3.0890397403704286 3.1798528732781084 1.0908227739585639 1.0450152392450101 479.75448920224295 479.75465009036282 1.0444259614897886 
-6.5891437604573095 -105.12067608084521 106.41679892263029 -6.5891437604573078 -105.12067608084521 106.41679892263029 -42.816636833705019 1.1911456058364999e-06 -8.5914149784254593e-07 -2.5778834299007941e-05 -31.845860553914971 8.9689117244162730e-11 3.1590507987289123e-11 6.0373789700918223e-07 -0.00019224132286772057 9.3952511475661348e-13 9.2965545821493271e-12 -8.4594105758834672e-11 -0.00018003308306057696 -6.4634479885999987 -104.98755276399999 109.33149947120000 327.67017865987640 0.0000000000000000 0.0000000000000000 0.0000000000000000 0.0000000000000000 3.0897849528562835 3.1814348157836601 1.0916609149949503 1.0451500046586157 402.98317155860724 402.99220235475417 1.0448262459635436 
-11.972094745332685 -97.205837693809357 98.275657136951153 -11.972094745332685 -97.205837693809357 98.275657136951153 -67.156064568064309 -1.9238373689467738e-06 -1.6780593819407432e-06 -2.8780321082148705e-05 -63.043626705827236 1.1791746745704046e-10 2.1103230274377438e-11 6.5496781331830800e-07 -0.00024995798474743917 -1.0451503117433533e-11 6.8473163551352692e-12 -4.2514742050428770e-11 -0.00025155218792254937 -11.806838433999999 -97.116880539599975 101.43768333439998 212.90238721710071 0.0000000000000000 0.0000000000000000 0.0000000000000000 0.0000000000000000 3.0892978332089940 3.1803887153510972 1.0911012889883556 1.0447973263967345 452.03535584669919 451.99942243622797 1.0445581218332847 
-16.044792136511287 -110.52337409479235 99.987402845103759 -16.044792136511280 -110.52337409479237 99.987402845103773 -57.963757097984711 1.1863418401923168e-05 -1.7788368469237524e-06 -5.4130707801569286e-05 0.0000000000000000 1.3927338449182258e-10 3.8741121421992375e-11 6.4419626877310066e-07 -0.00023900156472098078 2.3457202197302402e-11 -2.0439816859993439e-11 -1.0778487628611009e-10 0.0000000000000000 -15.849604639409371 -110.36010279166017 103.09742667861765 236.22178992679409 0.0000000000000000 0.0000000000000000 0.0000000000000000 0.0000000000000000 3.0890508201041906 3.1799401565578127 1.0909001686334805 1.0451126187512632 438.65358388781618 438.64918410545766 1.0444620149736463 
-24.003254715460816 -99.636734437158239 99.146269710353707 -24.003254715460809 -99.636734437158282 99.146269710353707 -57.285551402286274 1.4054894338462424e-05 2.3144725687916555e-05 -3.4439193362605055e-05 0.0000000000000000 1.8100845822210945e-10 2.4322766023487926e-11 6.4948928635288883e-07 -0.00023900610800273690 2.0661629464660157e-12 2.5644309573620856e-11 -8.9068923350274504e-11 0.0000000000000000 -23.749578654390465 -99.534212460059550 102.28184693721489 211.57004919854941 0.0000000000000000 0.0000000000000000 0.0000000000000000 0.0000000000000000 3.0915153427596969 3.1850143762430689 1.0935107226273215 1.0458955853753118 442.76621400844238 442.76149249410514 1.0457101786908991 
-54.632541111371076 -108.44960884730939 111.07141575852727 -54.632541111371076 -108.44960884730941 111.07141575852725 -27.314742058840750 7.9390901727807461e-06 2.7038424375913955e-05 -1.9348256427781236e-05 0.0000000000000000 -1.0303617396719453e-08 -6.4944290130253268e-08 3.0626647621450609e-07 -0.00019101797622851697 1.0421665281633451e-10 -6.6356099631132941e-12 7.9890119300926244e-11 0.0000000000000000 -54.087034329299712 -108.37170302860723 113.84396407125838 191.01171882188567 0.0000000000000000 0.0000000000000000 0.0000000000000000 0.0000000000000000 3.1062499380119224 3.2153445852607749 1.1091172973815777 1.0522855675765490 434.52478363332199 434.56454342367107 1.0531467997315358 
-42.132658857552954 -107.83143264143548 108.10345454149841 -42.132658857552975 -107.83143264143554 108.10345454149834 -34.968407607253816 -7.3954244118031381e-06 1.9221769521061281e-05 3.3449047629203433e-06 0.0000000000000000 -1.6969222003818808e-08 -2.2377574290423302e-08 3.4298062174890338e-07 -0.00016804069040022164 -4.2171996942611512e-11 7.5163302764136676e-11 6.0356251754958219e-11 0.0000000000000000 -41.690910404717421 -107.74885629568415 110.97670241767709 270.34727434602189 0.0000000000000000 0.0000000000000000 0.0000000000000000 0.0000000000000000 3.1018442543718279 3.2061076571795342 1.1042795881269634 1.0506269191384037 443.14938716690261 443.17004770882215 1.0508472196433905 