# For a description of the Tecplot format see the Tecplot User's guide.
#
Variables=x,y,z,s_u,s_v,s_w,s_p,mono_f_vel_u,mono_f_vel_v,mono_f_vel_w,const,u_nu,v_nu,w_nu,p_nu,x_nu,y_nu,z_nu,const,u_ref,v_ref,w_ref,vol_ref,x_ref,y_ref,z_ref,const,I1,I2,I3,J,p1,p2,p3
Zone f=fepoint, n=1339, e=6475, et=brick, c=black
-60.4749 -70.2607 173.296 -60.474916432258084 -70.260705320119754 173.29636200219355 -181.57913506201930 1.5284158342472236e-06 1.2195633564504102e-06 6.6917762851226005e-07 -186.07529860234908 8.3597762046139223e-10 -2.4835244971654905e-11 1.7008869299672824e-06 0.00037987226599966989 5.6494658232492445e-12 -2.2731903886618915e-11 4.2658101420395470e-11 0.00038975731841509221 -58.668039002000000 -70.473359259200009 176.35421013599998 215.13583165143561 0.0000000000000000 0.0000000000000000 0.0000000000000000 0.0000000000000000 3.3445530003466213 3.7150064624251935 1.3710082875498812 1.1693756690564745 1538.0542340066061 1540.0362475594663 1.1709080476087712 
-66.934413645184449 -76.319118692794646 181.86859246874624 -66.934413645184449 -76.319118692794660 181.86859246874624 -193.02477804342675 -1.9365383524148470e-05 -1.1459444860967360e-05 1.1265731368433565e-05 -194.67976408073753 9.1205210051015208e-10 -1.1155965040643425e-11 1.1991999464555645e-06 0.00036006733901919330 2.3587010824212015e-11 -1.0311663203554447e-11 7.7168941198749422e-12 0.00037099255778628727 -64.963123215600007 -76.414687385200040 184.02450960799996 253.42820447565578 0.0000000000000000 0.0000000000000000 0.0000000000000000 0.0000000000000000 3.3482980134690594 3.7233437071691271 1.3756356082770933 1.1693756690564754 1568.4182444621727 1562.4273057955647 1.1728964015647103 
-71.757648397028618 -71.393382482362099 174.28259063284463 -71.757648397028603 -71.393382482362099 174.28259063284463 -186.15236192390810 -8.5371739542652191e-06 -1.2502511098487788e-06 -1.4838576798664008e-06 -194.47994221260365 9.6883823186288964e-10 -2.2281954059621967e-11 1.6431682254847146e-06 0.00038973725789486819 2.3477285874391971e-11 -1.5955103781257528e-11 4.1048891163950806e-11 0.00039642101758441406 -69.663592608799988 -71.584146237200002 177.23667228800005 218.29881668600640 0.0000000000000000 0.0000000000000000 0.0000000000000000 0.0000000000000000 3.3502240356968094 3.7273508149198737 1.3777208561743564 1.1693756690564743 1562.9584344246084 1555.1965702948926 1.1737921098742741 
-58.932626957715655 -87.854131963803809 168.06228488223698 -58.932626957715676 -87.854131963803852 168.06228488223687 -158.95403386308578 -9.4529993292681016e-06 2.0601992892560885e-05 3.9567596390467890e-05 0.0000000000000000 8.1781814653680830e-10 1.4870549236434272e-11 2.0072095914258625e-06 0.00034201254065137311 -1.2463930029392270e-11 -9.0569249733436728e-11 -1.2608393833284963e-11 0.0000000000000000 -57.165005282198301 -87.726774323660578 171.67083873969227 259.76550921814646 0.0000000000000000 0.0000000000000000 0.0000000000000000 0.0000000000000000 3.3277519711418351 3.6775724384624446 1.3502092884847436 1.1639889812106190 1444.1414713654303 1441.3282056072835 1.1619755622536132 
-91.494767634036990 -83.419577564121681 107.08903958977970 -91.494767634037032 -83.419577564121695 107.08903958977969 -114.04195100911070 1.2883358579191954e-05 3.3483286857595563e-05 -1.7644569961558343e-05 0.0000000000000000 1.2012749683876223e-09 4.8694381860059366e-12 5.5756489203417914e-06 0.00047073973068300544 5.5910273557967464e-11 1.8807643476348626e-11 4.9885263883824811e-11 0.0000000000000000 -88.898344731952406 -83.377922378373768 117.11292023788836 283.91631954144174 0.0000000000000000 0.0000000000000000 0.0000000000000000 0.0000000000000000 3.3335177411305219 3.6889195481657557 1.3557870896600894 1.1658642814919984 1368.3204751302983 1368.3277553955954 1.1643819162435782 
-100.41927024935019 -66.618660321777014 97.150592701064795 -100.41927024935021 -66.618660321777028 97.150592701064809 -169.11917954114881 7.3190713523181390e-06 2.0982185296890448e-05 -8.5502747837604921e-05 -180.76391229833368 1.3063717885231085e-09 -3.3060665316497762e-11 6.1572932850140205e-06 0.00031367938696831842 -1.0883764116674645e-11 3.3501597441385247e-11 -2.7646592338186946e-10 0.00034488513641226865 -97.595692787999965 -66.901700632800015 108.22015140479995 322.25788568967050 0.0000000000000000 0.0000000000000000 0.0000000000000000 0.0000000000000000 3.3457927264800662 3.7182827112191243 1.3730780135423739 1.1693756690564745 1518.1570057486824 1518.1584108419704 1.1717952205019990 
-82.017737759764628 -67.260820279534371 97.592401178997804 -82.017737759764657 -67.260820279534357 97.592401178997804 -169.09302130019631 -1.3854459252316286e-05 2.0894925788503794e-05 -3.4985762322817655e-05 0.0000000000000000 1.0896664681681045e-09 -3.1613378581596414e-11 6.1314365922271463e-06 0.00037032767987615634 -6.5636788650993920e-11 -5.4475162644277506e-11 -2.3408907236650088e-10 0.0000000000000000 -79.662532843379708 -67.531450170133141 108.61547480962874 295.38956150422752 0.0000000000000000 0.0000000000000000 0.0000000000000000 0.0000000000000000 3.3349335202356887 3.6934731581354758 1.3590021038301936 1.1660205252164764 1483.0832749256622 1483.0870231028937 1.1657498920291289 
-97.219932898635847 -81.850841245780543 97.604508458585741 -97.219932898635818 -81.850841245780487 97.604508458585755 -149.77043275866987 -2.1355919453284866e-05 3.1322546416571145e-05 -6.2882308446114352e-05 0.0000000000000000 1.2686859340860224e-09 1.3173906410202108e-12 6.1307280176947643e-06 0.00024890621458399859 -2.9310451603143256e-11 -2.9022057014777407e-10 -5.1666944995158881e-10 0.0000000000000000 -94.477787882002133 -81.839503548705352 108.62630821647583 293.80807890400462 0.0000000000000000 0.0000000000000000 0.0000000000000000 0.0000000000000000 3.3366406938969435 3.6964326265684564 1.3602346564743408 1.1663376038155993 1435.8581544235672 1435.8720760234899 1.1662802133573462 
-48.892657475562736 -126.82420133917437 131.21676945774843 -48.892657475562757 -126.82420133917446 131.21676945774837 -33.558700102378928 1.4708671865137358e-05 3.1775871715748944e-06 1.1279088587084894e-05 0.0000000000000000 1.9832693429422761e-07 -5.9446603832649417e-07 5.0655943108421356e-06 0.00060486496764162003 2.2418213355983094e-11 -4.6539602579599366e-11 1.6681513995776569e-10 0.0000000000000000 -47.292355390977058 -125.96433165720771 138.67232254046354 244.31333887135355 0.0000000000000000 0.0000000000000000 0.0000000000000000 0.0000000000000000 3.3563827146879959 3.7423052019775755 1.3866248020261047 1.1782172137737792 1322.0344011865820 1322.0348989478150 1.1775496787370863 
-35.406323791408646 -141.61265726451424 131.78380618034177 -35.406323791408653 -141.61265726451427 131.78380618034177 -31.484423057101100 1.6667406131857401e-05 7.4299832904619160e-06 7.1438589242462994e-06 0.0000000000000000 1.2508079415291271e-07 -3.2984252398021214e-07 4.3470725402152406e-06 0.00042889822497627474 4.0037835548694073e-11 -2.2272437953051537e-10 3.1091694082364045e-10 0.0000000000000000 -34.196989160350306 -140.43319657724166 139.21506628885933 210.16870282748488 0.0000000000000000 0.0000000000000000 0.0000000000000000 0.0000000000000000 3.3539724589054325 3.7371209853937297 1.3838267906642736 1.1764758853900192 1310.6398152530628 1310.5822878936381 1.1763639810508695 
-32.031130218420088 -128.55508257143882 135.71684989486207 -32.031130218420103 -128.55508257143890 135.71684989486212 -50.094768057354536 1.3618973993998318e-05 2.8272065143691538e-06 2.6486728649154760e-05 0.0000000000000000 5.0101822690606923e-10 1.0675282879901715e-10 3.9002156526635190e-06 0.00047585972479008561 4.0475646559085165e-11 -7.9232551992261164e-11 1.8925887410353854e-10 0.0000000000000000 -30.948229910445860 -127.64113600963313 142.72864290474456 229.21992526850030 0.0000000000000000 0.0000000000000000 0.0000000000000000 0.0000000000000000 3.3462797378957427 3.7196047867191306 1.3739187102713633 1.1733994760059243 1319.4877487039141 1319.4902207947896 1.1721427271593685 
-50.035275497856716 -131.85447327112337 140.34998099820146 -50.035275497856702 -131.85447327112340 140.34998099820143 -28.005569544738940 2.0485779101867877e-05 4.0103987204143646e-05 -2.0061189885675637e-05 0.0000000000000000 2.7493261481130128e-07 -5.7715174398446174e-07 4.4824581303075189e-06 0.00045465038464068353 4.3103697786095883e-11 -5.0535726640719002e-11 1.1403135276739701e-10 0.0000000000000000 -48.406431667502837 -130.90513559487593 146.85896726379221 225.63426853136377 0.0000000000000000 0.0000000000000000 0.0000000000000000 0.0000000000000000 3.3613031490560368 3.7528790312021600 1.3922959329847790 1.1794078557067493 1317.7181398836401 1317.7134590548785 1.1799557005635639 
-54.652966088884902 -84.857647408390335 62.806808369122514 -54.652966088884874 -84.857647408390278 62.806808369122550 -143.56559131360856 -6.8047729922338098e-06 0.00015300306420153005 -0.00017333944143829727 0.0000000000000000 5.8737461527187592e-08 -1.0828221103009203e-06 4.8471819685840036e-06 -0.0017378194880863056 3.1615220158563654e-10 -4.4067721868844413e-09 -4.8081635878896961e-09 0.0000000000000000 -53.009977022357148 -84.940192361847963 77.707205907375524 356.07450292316213 0.0000000000000000 0.0000000000000000 0.0000000000000000 0.0000000000000000 3.3485162343153738 3.7231520002960257 1.3751531997677131 1.1709814976324511 1410.9157977233810 1411.0132996112111 1.1725841101918695 
-41.613553290190040 -85.687865646158585 51.499130557022511 -41.613553290190040 -85.687865646158585 51.499130557022475 -294.82393454868958 1.9094648266113693e-05 3.8510180828198277e-05 -0.00012820303907481759 0.0000000000000000 -6.9795874364656754e-07 -3.3548783853322554e-07 8.7512474637174692e-06 -0.0015266549298691369 -1.3326722016555067e-09 -5.9263452573581184e-10 1.4502479598764972e-09 0.0000000000000000 -40.313282635619565 -85.652866469445740 67.489144002613742 334.72004880612383 0.0000000000000000 0.0000000000000000 0.0000000000000000 0.0000000000000000 3.3282651879072587 3.6805477757069234 1.3527739300216910 1.1654611733260472 1686.2277062264764 1685.1278960497441 1.1630597995092378 
-44.241197276252009 -94.240359522149788 69.105763774837726 -44.241197276252016 -94.240359522149845 69.105763774837683 -106.20605459506166 0.00014216519033333121 1.3914838009626567e-05 -6.5673296981304613e-05 0.0000000000000000 -4.9597478702997079e-07 1.4442815214357496e-06 4.8978626160546125e-06 -0.00083255347439791471 -2.2222632579539512e-09 1.6983439174278925e-09 -3.6012422375428173e-09 0.0000000000000000 -42.930125987095458 -94.071309017270835 83.274511392489799 283.94561953274422 0.0000000000000000 0.0000000000000000 0.0000000000000000 0.0000000000000000 3.3533936954234917 3.7345472195615055 1.3817594018109776 1.1714383541784812 1379.3640779419375 1379.3619716214516 1.1754691471795384 
-46.394833661326324 -99.318638481578432 52.218445484406921 -46.394833661326331 -99.318638481578503 52.218445484406921 -194.36717536496133 0.00016976905690836195 5.7365023554504305e-05 -0.00020768306763078832 0.0000000000000000 6.7016736604585968e-10 4.0750292029656521e-11 8.7869325753331395e-06 -0.0015605456468589490 -2.1053050255212922e-09 3.1155280729013502e-09 1.2400855476631656e-09 0.0000000000000000 -44.946335306532468 -98.969717126470769 68.015559797458934 339.42980011114588 0.0000000000000000 0.0000000000000000 0.0000000000000000 0.0000000000000000 3.3459691902595283 3.7201831234379941 1.3748857841721103 1.1702577176722342 1502.2531086168697 1502.4839768259578 1.1725267419755390 
-36.784327503518398 -101.19076065408940 60.328530450459283 -36.784327503518398 -101.19076065408943 60.328530450459304 -200.04609489851251 9.6451541720605062e-05 3.5065076437218572e-05 -8.2094039475896568e-05 0.0000000000000000 -2.7059190134209538e-07 9.7898441402357723e-07 7.5422851442927897e-06 -0.00053159514232025849 -6.1684900029456686e-10 1.4323161855487973e-09 -8.5547094744522676e-10 0.0000000000000000 -35.672109309640206 -100.83293553867907 75.360366609178811 338.44965823895870 0.0000000000000000 0.0000000000000000 0.0000000000000000 0.0000000000000000 3.3228171311693777 3.6684766564415972 1.3461194150809208 1.1652610630585964 1506.3615473262862 1506.4557889228645 1.1602146539152356 
-50.529531505290414 -112.59762867842858 49.276489449627270 -50.529531505290414 -112.59762867842856 49.276489449627277 -160.77078522414058 0.00018889342045984043 4.9909300394967096e-06 -0.00011000800038794355 -88.774395831001215 7.1885997154907944e-10 7.0729200274399760e-11 8.9591095999708159e-06 -9.1885921143494386e-05 9.9818587307976408e-10 9.5274801067476356e-10 -1.5584037620952397e-09 0.00065245622497356857 -48.975793059600008 -111.99207679200002 65.383142959360015 326.57209562220959 0.0000000000000000 0.0000000000000000 0.0000000000000000 0.0000000000000000 3.3408528237874342 3.7061466204669338 1.3657721503849607 1.1696598180425195 1451.3560485839539 1451.2553455347991 1.1686343061984572 
-26.173339343627102 -111.05766173697333 51.608350652987625 -26.173339343627077 -111.05766173697337 51.608350652987617 -292.34817851193941 3.3991413718284160e-05 1.4088849710866603e-05 -9.7304490379092993e-05 0.0000000000000000 4.3203540744940488e-10 6.7247984958385132e-11 8.8226381791400854e-06 -0.00016480300789449852 -6.7292318487994971e-11 3.5294904699112614e-10 -4.0138872321413898e-10 0.0000000000000000 -25.239536857883341 -110.48187134057846 67.469656361758609 349.35568362690350 0.0000000000000000 0.0000000000000000 0.0000000000000000 0.0000000000000000 3.3331457535695104 3.6907108503193307 1.3580736848019179 1.1664540933500549 1702.3956785388723 1702.6024504427553 1.1653580898685163 
-45.501616117052436 -111.85989598636091 61.647354523812055 -45.501616117052436 -111.85989598636084 61.647354523812055 -125.12705809705642 9.1824233179481251e-05 -9.0688843753433383e-05 -4.5733800605708665e-05 0.0000000000000000 6.5964977924437552e-10 6.9060313023783237e-11 8.2351087442589233e-06 0.00035441125368257783 9.2998686440497890e-10 -1.0867086607492175e-09 2.5193031711164102e-11 0.0000000000000000 -44.075852747763513 -111.26860156453857 76.452402029906395 268.59635586333832 0.0000000000000000 0.0000000000000000 0.0000000000000000 0.0000000000000000 3.3505067987998265 3.7298594885168135 1.3800290922571896 1.1709385885888062 1443.1446464930557 1443.0853253704001 1.1747606927707963 
-60.139228722264690 -106.98580194924706 93.877934628360961 -60.139228722264704 -106.98580194924713 93.877934628360919 -20.683563721575556 2.1985223801565913e-05 3.7508094214732465e-05 9.8741313476828563e-06 0.0000000000000000 -3.0843643252953917e-07 7.9334296487332939e-07 5.3050746262108734e-06 0.0010518917569200326 -1.2572531270227468e-10 1.5521645276181601e-11 -1.0308759571388422e-10 0.0000000000000000 -58.254647241440821 -106.62760994408018 105.33920711112118 241.62621693813244 0.0000000000000000 0.0000000000000000 0.0000000000000000 0.0000000000000000 3.3661607014218093 3.7640199205108753 1.3986605952570417 1.1815407658172112 1314.8360378424291 1314.8353908784702 1.1826451510466252 
-66.479028622444403 -90.045630109241401 84.103534636854036 -66.479028622444432 -90.045630109241358 84.103534636854022 -60.964450405604161 -2.8076605971755762e-05 -1.2801247701680056e-05 6.3859340484954358e-05 0.0000000000000000 -8.8496724757782818e-07 9.5436200767770498e-07 4.6910321502419359e-06 0.00049215823270552805 -2.5667368793449924e-09 6.4737188576703438e-10 -1.1980681860900190e-09 0.0000000000000000 -64.370648572599308 -90.090304358695661 96.688480747766732 239.98138923263960 0.0000000000000000 0.0000000000000000 0.0000000000000000 0.0000000000000000 3.3607250779423539 3.7511821097070595 1.3911098696182789 1.1744287359172771 1343.4909283403222 1343.4923283667113 1.1794145303616193 
-78.346154860255453 -99.911460424416532 89.316955723196997 -78.346154860255425 -99.911460424416461 89.316955723196941 -49.956812981659056 -4.0606341184900235e-05 5.6895727943742723e-05 -1.6716418205444932e-05 0.0000000000000000 -8.5935289244762746e-07 6.4450319558065853e-07 5.1559670881882712e-06 0.00047757943313819030 -5.0661203361528646e-10 5.4058685944306825e-10 -6.3776382916585295e-10 0.0000000000000000 -75.913673002404863 -99.702254402691466 101.32606574872912 288.13617662859207 0.0000000000000000 0.0000000000000000 0.0000000000000000 0.0000000000000000 3.3635719700584907 3.7581511601564408 1.3953373195484453 1.1775601030820777 1340.8568052892440 1340.8582517485067 1.1812695222817100 
-56.977575412288900 -93.654542327528375 91.585865851107428 -56.977575412288857 -93.654542327528375 91.585865851107428 -57.699927611138449 1.6527503042929404e-06 3.2960353480716665e-05 3.3014575237096251e-05 0.0000000000000000 -2.3542978526112525e-07 7.3964889394510188e-07 5.0325119090453294e-06 0.00092550692450777989 2.9554642584182437e-10 -6.0646735192386273e-10 8.8354287782567567e-10 0.0000000000000000 -55.164710769962618 -93.586508083202432 103.32606452766413 222.68531933077850 0.0000000000000000 0.0000000000000000 0.0000000000000000 0.0000000000000000 3.3583499856122363 3.7450299344841236 1.3872958827550610 1.1768847170330765 1370.3435381178667 1370.3425361131804 1.1778342622743496 
-47.232599761949736 -177.76070249735059 150.15665220720120 -47.232599761949743 -177.76070249735048 150.15665220720120 -21.562667691659051 -3.2398191863524082e-05 -2.0011608031032494e-05 5.5153232341848301e-05 0.0000000000000000 6.8003391806570335e-10 2.1781687564725874e-10 3.0551309180282264e-06 0.00024976270585855498 2.2222490374107215e-10 5.1222787457750382e-11 -1.8847310336499883e-10 0.0000000000000000 -45.762777822239421 -175.89580528354742 155.64915507299250 248.91339099022119 0.0000000000000000 0.0000000000000000 0.0000000000000000 0.0000000000000000 3.3584071385769323 3.7442201510440225 1.3863995029408991 1.1751857063228921 1275.2278246828866 1275.2576605069237 1.1774408637211771 
-53.053475618925404 -187.61821549520806 164.13159030582645 -53.053475618925404 -187.61821549520803 164.13159030582645 -31.369970497439756 7.2535941959956217e-06 -8.5731320597434599e-06 -8.6635619686546214e-06 -41.005701926413742 7.4857842147224574e-10 2.4006263643627790e-10 2.2372522252567251e-06 0.00027139539285360274 -5.3515648875553516e-11 1.3674693364187105e-11 2.2047178283434733e-11 0.00026675487712334191 -51.435495451599998 -185.56281141599996 168.15371392000000 294.81703600272857 0.0000000000000000 0.0000000000000000 0.0000000000000000 0.0000000000000000 3.3401674303462237 3.7056030729456402 1.3659701516563614 1.1698002307401179 1255.7777355311102 1255.6894525087514 1.1687528729576948 
-44.066709940905994 -172.93791713329060 162.02257577303226 -44.066709940905994 -172.93791713329060 162.02257577303226 -28.130256528754185 8.6327907401890218e-06 -7.2980593862532242e-06 6.4225387766480378e-06 0.0000000000000000 3.4239711519870797e-08 -1.0512962188758055e-07 2.4515453167835290e-06 0.00026872095974382317 2.7091028182382238e-11 -5.5977720998395967e-12 1.4672494181904187e-10 0.0000000000000000 -42.672974891599750 -171.18173466392949 166.26923354793541 271.88244999766295 0.0000000000000000 0.0000000000000000 0.0000000000000000 0.0000000000000000 3.3440853958315695 3.7140201043607282 1.3704887904827396 1.1713080968148213 1256.0650444219546 1256.2010924957642 1.1706804460430080 
-61.208278551154550 -179.92409036982599 152.50521864616402 -61.208278551154542 -179.92409036982602 152.50521864616397 -40.871985963971120 -8.7046291661737787e-06 -6.1686953871898864e-06 -3.6959039353141315e-06 0.0000000000000000 8.4461426741455625e-10 2.2268187294116612e-10 2.9176818223675127e-06 0.00029894103563625273 -4.9871192678898744e-11 -4.1432052204652602e-11 5.7835511737610889e-11 0.0000000000000000 -59.382734921100123 -178.01738339707751 157.75061606229067 243.94852352315442 0.0000000000000000 0.0000000000000000 0.0000000000000000 0.0000000000000000 3.3434566750301205 3.7120184522428028 1.3690771678741323 1.1710368129736335 1274.7056419109476 1274.6963701629209 1.1700784767322219 
-31.717337563206371 -103.11041752286759 82.639918213825624 -31.717337563206353 -103.11041752286762 82.639918213825652 -59.161828410395408 2.8599244364866766e-05 6.1652235376223068e-05 -0.00011378225300692699 0.0000000000000000 2.6658467913089462e-07 1.3628163491026996e-07 6.1929549891857670e-06 0.00022263881902778848 6.2245161328802339e-10 -2.3685454764919706e-09 -2.8073183757637735e-10 0.0000000000000000 -30.660097366607719 -102.72526557899965 95.328291536857705 204.58703120518373 0.0000000000000000 0.0000000000000000 0.0000000000000000 0.0000000000000000 3.3552956612588236 3.7363051247352774 1.3815184765751349 1.1737619325211635 1326.9775549294102 1327.1118685602671 1.1753684980505985 
-19.569948525133576 -111.49009883197714 80.536409343905959 -19.569948525133565 -111.49009883197718 80.536409343905959 -134.76903659459796 6.8630250386175835e-05 -1.1242307190053885e-06 -0.00011291187835782975 0.0000000000000000 3.5427527578235640e-10 6.8229866201363607e-11 7.1296329657855031e-06 0.00017168380105530236 -1.3310770006798186e-09 2.5043938523978325e-11 6.5934471924693266e-10 0.0000000000000000 -18.804221549666405 -110.90595113131390 93.354036648627854 267.24800799435923 0.0000000000000000 0.0000000000000000 0.0000000000000000 0.0000000000000000 3.3377651334437402 3.6986285937813048 1.3613098258102569 1.1685048916042120 1441.9702950925055 1439.8924138443324 1.1667606927617444 
-34.886483321282945 -105.17487233423952 71.052287173258946 -34.886483321282959 -105.17487233423950 71.052287173258946 -130.12303690729237 7.8786717801077082e-05 -2.3976324865372971e-05 -8.4395984154442708e-05 0.0000000000000000 1.8842398079247889e-07 6.7154659675168837e-07 6.8195362408375706e-06 0.00028764701661761687 8.0220848969029692e-10 6.2072349458583908e-11 -6.4847905754493254e-11 0.0000000000000000 -33.815892125380543 -104.71065599625929 85.007910193808286 270.69679205096202 0.0000000000000000 0.0000000000000000 0.0000000000000000 0.0000000000000000 3.3313170507827730 3.6870240698641976 1.3562227383373087 1.1673930659606209 1399.4059126846309 1399.7505909140671 1.1645383387330808 
-19.689965478421211 -100.75638853927276 82.820788670000695 -19.689965478421204 -100.75638853927279 82.820788670000667 -99.544102914196344 3.0570175633261312e-05 -1.5939985138143890e-05 -2.3599117742567282e-05 0.0000000000000000 3.5568925582651900e-10 4.4002579357993448e-11 6.9959404029873440e-06 0.00034640028449168679 -3.2599794436510575e-10 -3.5004970947971456e-10 -2.0443372238608386e-10 0.0000000000000000 -18.921183722278450 -100.37968114352928 95.398064000337470 185.31956687594098 0.0000000000000000 0.0000000000000000 0.0000000000000000 0.0000000000000000 3.3443894672133108 3.7130027062860034 1.3690899375692096 1.1696332574083987 1396.8591748053766 1397.4362561198209 1.1700969319900514 
-32.191936149447550 -118.66016336410144 169.83936168815757 -32.191936149447550 -118.66016336410138 169.83936168815760 -74.744616169757535 5.9642866604002489e-05 6.8538911094955990e-05 1.3825604361412397e-06 0.0000000000000000 1.3982841617497983e-07 -9.4046043326469928e-08 2.0844469074523998e-06 0.00018362904937516280 1.9626389755139512e-11 -2.8490964601674303e-10 1.7389601399358935e-10 0.0000000000000000 -31.124431206993112 -117.97934695114738 173.21200361760444 258.17126679857051 0.0000000000000000 0.0000000000000000 0.0000000000000000 0.0000000000000000 3.3461426765115485 3.7176070466524740 1.3719767032251757 1.1722057224912807 1342.7977378332289 1342.7905239709287 1.1713126800847353 
-31.720460809940988 -134.13293152256659 160.40880899874605 -31.720460809940967 -134.13293152256662 160.40880899874620 -47.251563660397558 3.2930632185387587e-05 6.8835211139928345e-06 -7.1703357996615706e-06 0.0000000000000000 1.2345890898315888e-07 -5.2777533503321818e-08 2.6266534416759248e-06 0.00028144468523891254 1.2526825610121604e-10 -1.8099528170209423e-11 3.4052851492878094e-11 0.0000000000000000 -30.642131568542830 -133.13454878399213 164.80820313575899 262.24283076768535 0.0000000000000000 0.0000000000000000 0.0000000000000000 0.0000000000000000 3.3503454316386905 3.7276548306493433 1.3778961118351274 1.1740306376555412 1315.9854644724837 1315.9951718517834 1.1738363504488276 
-44.085279960299701 -120.77868869993412 159.24708429912420 -44.085279960299687 -120.77868869993416 159.24708429912423 -23.611601877263134 7.1402353576573963e-05 2.3573716172930068e-05 -3.0164615886138891e-06 0.0000000000000000 1.2966323214821844e-07 -2.1343042870834564e-07 3.1480781043427537e-06 0.00024735008476910251 -1.8190659625013753e-10 1.7489560282017994e-10 2.7931891280378288e-11 0.0000000000000000 -42.676694985445003 -120.10595080876966 163.70375490782192 268.28772502602959 0.0000000000000000 0.0000000000000000 0.0000000000000000 0.0000000000000000 3.3678217726032917 3.7666837667326116 1.3996070975889796 1.1807862618078078 1311.8442159826443 1311.8861198848947 1.1830435546376139 
-24.642152657646868 -114.88370009221865 157.04503261788719 -24.642152657646871 -114.88370009221856 157.04503261788713 -90.665238865855002 2.6239901887398620e-05 2.1777830208876968e-05 1.7820078733492804e-05 0.0000000000000000 4.1400605166330711e-10 7.5887296446808250e-11 2.6519906910493773e-06 0.00032169438361556767 -1.5487782028715302e-11 -5.1908956066540719e-11 1.3237763373303511e-10 0.0000000000000000 -23.747323328369049 -114.23396745764113 161.81277151251504 321.01516800445251 0.0000000000000000 0.0000000000000000 0.0000000000000000 0.0000000000000000 3.3393938739516038 3.7032188324964328 1.3643114502648432 1.1696074562725074 1364.8375680277627 1364.8347762158803 1.1680458752384772 
-6.9068625808906372 -105.45506709278730 98.392621358291990 -6.9068625808906354 -105.45506709278726 98.392621358291990 -25.407400838864955 4.2830359844047602e-06 -5.8823516695310716e-06 -6.1358571484434310e-05 4.9898004575445558 2.0515150689348618e-10 5.4595439280546998e-11 6.0846039673378991e-06 0.00062644582701797049 -9.5012103315901060e-11 2.7086063615481379e-10 -7.9023271323052193e-11 0.00056293381385272919 -6.4634479885999987 -104.98755276399999 109.33149947120000 327.67017865987640 0.0000000000000000 0.0000000000000000 0.0000000000000000 0.0000000000000000 3.3418242876199855 3.7091614036539364 1.3678732978718575 1.1700666239116553 1219.7779809229917 1219.8277024452943 1.1695620585718227 
-12.389809991676749 -97.429288202108708 89.570591471159290 -12.389809991676747 -97.429288202108722 89.570591471159304 -81.106905008801334 1.7613164269908355e-06 -1.3047035377999896e-05 -7.6798155242078055e-05 -73.371911638929745 2.6972069022690448e-10 3.6479930187738319e-11 6.6009103960595877e-06 0.00049368025061014345 -3.3186864693670737e-11 1.9927075633950128e-12 -5.0278088206485634e-11 0.00048643312344264059 -11.806838433999999 -97.116880539599975 101.43768333439998 212.90238721710071 0.0000000000000000 0.0000000000000000 0.0000000000000000 0.0000000000000000 3.3412158896235162 3.7074555880997577 1.3667589475587685 1.1693756690564747 1343.4833843882334 1343.5988647039571 1.1690844848302524 
-16.538163873891239 -110.93349350564637 91.425499811296191 -16.538163873891236 -110.93349350564633 91.425499811296220 -66.158474598134049 2.4980673480518016e-05 -1.0833586694841605e-05 -0.00014640288231026645 0.0000000000000000 3.1857266824530944e-10 6.6969985113018993e-11 6.4923524938365063e-06 0.00055903800186681680 -1.1283793611444745e-10 7.0470560934478299e-13 -1.9648831168950875e-10 0.0000000000000000 -15.849604639409371 -110.36010279166017 103.09742667861765 236.22178992679409 0.0000000000000000 0.0000000000000000 0.0000000000000000 0.0000000000000000 3.3385014189573368 3.7020060905847689 1.3640281117132664 1.1695340433193353 1315.1848952284026 1315.7201223967086 1.1679179240110538 
-24.644466887553133 -99.894258276563420 90.514018123693631 -24.644466887553122 -99.894258276563448 90.514018123693631 -54.200626435590976 3.7538629116524790e-05 5.2747390942130348e-05 -8.7040913868953690e-05 0.0000000000000000 4.1403214190438570e-10 4.2044367987159610e-11 6.5456966638066660e-06 0.00060863293616400180 5.2409908865854027e-10 1.8244238810642953e-10 -7.8238737194059694e-11 0.0000000000000000 -23.749578654390465 -99.534212460059550 102.28184693721489 211.57004919854941 0.0000000000000000 0.0000000000000000 0.0000000000000000 0.0000000000000000 3.3440512476617901 3.7142430155900334 1.3707482935730910 1.1713913455988092 1303.0786236001759 1302.9434476167162 1.1707892729981717 
-55.881572761955212 -108.79808209039913 103.41142554944621 -55.881572761955205 -108.79808209039908 103.41142554944618 -10.173119097600356 8.0395226514063683e-06 1.0596979493085927e-05 -1.1899114438368504e-05 0.0000000000000000 9.0318159243669961e-08 6.4859567877716429e-07 5.4015022892124350e-06 0.0015458161375361498 9.3728580246570948e-10 9.3937812432507701e-10 -1.1887909740684082e-09 0.0000000000000000 -54.087034329299712 -108.37170302860723 113.84396407125838 191.01171882188567 0.0000000000000000 0.0000000000000000 0.0000000000000000 0.0000000000000000 3.3667844958772126 3.7647254270838642 1.3987111145896902 1.1820163737211817 1296.4196887754222 1296.4213380738186 1.1826740967109932 
-43.145791848725985 -108.17415703210423 100.18819488091796 -43.145791848725978 -108.17415703210419 100.18819488091792 -15.773818269983547 -1.1300502973583446e-05 1.1379877321954216e-05 1.1018320627717309e-05 0.0000000000000000 5.1887261232119831e-08 5.1518904574640419e-07 5.6112957256333354e-06 0.00098916714511232125 1.6937460741000133e-10 -1.4169401597402531e-10 4.1968861833666004e-12 0.0000000000000000 -41.690910404717421 -107.74885629568415 110.97670241767709 270.34727434602189 0.0000000000000000 0.0000000000000000 0.0000000000000000 0.0000000000000000 3.3638179853608010 3.7568970670272241 1.3937503603518728 1.1802091867653930 1304.9217606694122 1304.9294351828910 1.1805721084090623 