# For a description of the Tecplot format see the Tecplot User's guide.
#
Variables=x,y,z,s_u,s_v,s_w,s_p,mono_f_vel_u,mono_f_vel_v,mono_f_vel_w,const,u_nu,v_nu,w_nu,p_nu,x_nu,y_nu,z_nu,const,u_ref,v_ref,w_ref,vol_ref,x_ref,y_ref,z_ref,const,I1,I2,I3,J,p1,p2,p3
Zone f=fepoint, n=1339, e=6475, et=brick, c=black
-59.1802 -70.4128 175.539 -59.180249946410271 -70.412805363107182 175.53941809950177 145.63718641042286 8.5738065917710419e-07 3.2740547318556061e-06 -5.1972620591969511e-06 144.20976886660267 -3.9755057579249353e-10 1.5611512083069101e-11 -1.8583668470739667e-07 -0.00065386674731637883 -1.2823782839756742e-11 3.2804130007069026e-11 -6.0706654324226466e-11 -0.00066621856134877800 -58.668039002000000 -70.473359259200009 176.35421013599998 215.13583165143561 0.0000000000000000 0.0000000000000000 0.0000000000000000 0.0000000000000000 3.0880644381793192 3.1778633389571946 1.0898085912942448 1.0447983300168382 96.742144932350712 96.742135764385026 1.0439419396933685 
-65.521941714152021 -76.387473891320369 183.45004546212132 -65.521941714152021 -76.387473891320354 183.45004546212127 157.96565218364708 -7.8547556744581293e-06 1.1669334401690142e-05 -1.4948158037805290e-05 156.83737880498637 -4.3372147540132739e-10 7.0115580008689433e-12 -1.3102301998912935e-07 -0.00060779463091832739 -2.1586438361428670e-11 3.4299268917634613e-11 -4.4438094426158846e-11 -0.00061628736034623156 -64.963123215600007 -76.414687385200040 184.02450960799996 253.42820447565578 0.0000000000000000 0.0000000000000000 0.0000000000000000 0.0000000000000000 3.0863045485373188 3.1742331754133724 1.0879370932523484 1.0447983300168393 73.116047520910897 73.116449404623125 1.0430483395764703 
-70.257212449844303 -71.529825641782438 176.44952979351984 -70.257212449844289 -71.529825641782423 176.44952979351982 146.60653714733849 3.6276867274812412e-06 3.6266126552704377e-06 -4.7251289884545124e-06 148.38345021555031 -4.6073975190630279e-10 1.4008738613568996e-11 -1.7953041897555977e-07 -0.00066797836067309421 -1.6071642228047462e-11 2.8145896440208148e-11 -5.5993479236277922e-11 -0.00067341156822469349 -69.663592608799988 -71.584146237200002 177.23667228800005 218.29881668600640 0.0000000000000000 0.0000000000000000 0.0000000000000000 0.0000000000000000 3.0856257666280063 3.1728682611147021 1.0872510029884612 1.0447983300168393 85.994881875348696 85.994823074332984 1.0427210176015955 
-57.666088063251934 -87.763039823096918 170.70930604818176 -57.666088063251905 -87.763039823096875 170.70930604818182 138.88736387539208 4.9730821352108697e-06 -5.2395751108737013e-06 -1.9245717923235271e-05 0.0000000000000000 -3.8890998754759210e-10 -9.3441365756063988e-12 -2.1930510474277296e-07 -0.00063398130591049283 1.5191127884726197e-11 6.3410943617629693e-11 -3.2134872227656698e-11 0.0000000000000000 -57.165005282198301 -87.726774323660578 171.67083873969227 259.76550921814646 0.0000000000000000 0.0000000000000000 0.0000000000000000 0.0000000000000000 3.0974494114229465 3.1971245424418826 1.0996895607590489 1.0477188481841340 137.65982794606188 137.65955002510660 1.0486565228161691 
-89.634374860224696 -83.389783827074950 114.44196413755374 -89.634374860224696 -83.389783827074993 114.44196413755377 143.18020193427623 9.2095598461437475e-06 -1.8985483646675618e-05 1.3030291839662958e-06 0.0000000000000000 -5.7126811614516271e-10 -3.0599411893206248e-12 -6.0918814970278845e-07 -0.0010075748081688346 -1.5303286286205343e-11 -5.9571362549492945e-11 -7.6137301041716832e-11 0.0000000000000000 -88.898344731952406 -83.377922378373768 117.11292023788836 283.91631954144174 0.0000000000000000 0.0000000000000000 0.0000000000000000 0.0000000000000000 3.0990781578771642 3.2007425992666771 1.1016830314093762 1.0484990522553168 128.36776803660985 128.37490912340084 1.0496062342550860 
-98.396116355129905 -66.821103989926158 105.27056467430235 -98.396116355129919 -66.821103989926172 105.27056467430234 157.97876735700336 6.1906988876266661e-06 7.6801815525421440e-06 -6.8646600229496058e-06 156.38512911103390 -6.2124147492959015e-10 2.0782264797958305e-11 -6.7273786452659579e-07 -0.00085073137207587887 2.0573134309905832e-12 -3.2365550521256339e-11 2.2952422837524396e-10 -0.00088341736650701078 -97.595692787999965 -66.901700632800015 108.22015140479995 322.25788568967050 0.0000000000000000 0.0000000000000000 0.0000000000000000 0.0000000000000000 3.0859220185834384 3.1733715533446527 1.0874568942033966 1.0447983300168389 72.537893835205210 72.538863051953527 1.0428206407797005 
-80.330182853446459 -67.454387434564694 105.67827445861238 -80.330182853446502 -67.454387434564737 105.67827445861241 148.36020164822563 4.7935293679696023e-06 3.2095717186905451e-06 1.8555676284705371e-06 0.0000000000000000 -5.1818768720401909e-10 1.9876877921376490e-11 -6.6991279545902661e-07 -0.00091770771930362168 7.9997920729079457e-11 1.5944056864477938e-11 1.7436815665426167e-10 0.0000000000000000 -79.662532843379708 -67.531450170133141 108.61547480962874 295.38956150422752 0.0000000000000000 0.0000000000000000 0.0000000000000000 0.0000000000000000 3.0941245948625213 3.1903825792144000 1.0962720974292910 1.0469036970430567 110.36379004196516 110.30444407034901 1.0470253423193301 
-95.255127100013837 -81.842731994571878 105.68944730068294 -95.255127100013837 -81.842731994571920 105.68944730068293 157.48138701327719 1.1866387610635542e-05 5.9475194278356129e-06 6.3837369414298239e-06 0.0000000000000000 -6.0333424367620125e-10 -8.3044682241961719e-13 -6.6983537472253829e-07 -0.00081225151333791108 3.7737969579920567e-11 2.4002778955674004e-10 4.4204312906162423e-10 0.0000000000000000 -94.477787882002133 -81.839503548705352 108.62630821647583 293.80807890400462 0.0000000000000000 0.0000000000000000 0.0000000000000000 0.0000000000000000 3.0951415571646232 3.1925375480851979 1.0974112369244262 1.0472753599493196 96.210121259740447 96.205272241581440 1.0475672101780864 
-47.623301821178387 -126.25586939221051 136.62738041649826 -47.623301821178373 -126.25586939221056 136.62738041649834 47.796696354408681 4.7311918846533829e-06 -9.0766062340434469e-06 -1.4093944875918898e-05 0.0000000000000000 -2.6420325199944365e-07 6.3765129123549546e-07 -2.6934874984165753e-06 -0.0011691110187815055 -2.6608439439287534e-11 2.9067730912483850e-11 -3.0073584507662695e-10 0.0000000000000000 -47.292355390977058 -125.96433165720771 138.67232254046354 244.31333887135355 0.0000000000000000 0.0000000000000000 0.0000000000000000 0.0000000000000000 3.0761763096844121 3.1530540372579154 1.0768793273510013 1.0376780017604645 214.23061811299246 214.23210362922171 1.0377275279157168 
-34.492080722919624 -140.75430367991481 137.23103152053199 -34.492080722919610 -140.75430367991478 137.23103152053193 47.611486125009861 -9.4362897247993079e-06 4.0157576702901356e-06 -3.3025420129736678e-06 0.0000000000000000 -1.4635411188505644e-07 4.0612031536402074e-07 -1.0812406491268517e-06 -0.00090208388721533812 -3.2172792421870197e-11 2.4932228117351281e-10 -4.8957246145113090e-10 0.0000000000000000 -34.196989160350306 -140.43319657724166 139.21506628885933 210.16870282748488 0.0000000000000000 0.0000000000000000 0.0000000000000000 0.0000000000000000 3.0790817856346853 3.1591207420935650 1.0800417253776791 1.0392973484955084 220.27961381622032 220.26720622806928 1.0392523274270209 
-31.255208889850341 -127.90138524544480 140.86028553183806 -31.255208889850344 -127.90138524544487 140.86028553183806 54.601077640291059 -6.9285848898597229e-06 -7.1671037798706091e-06 -4.1696486534959506e-06 0.0000000000000000 -2.3825913464392556e-10 -6.7108540946492212e-11 -4.2613249906509054e-07 -0.00093011069499328140 -7.5027391118250236e-11 8.3993468289767092e-11 -3.6834470776275364e-10 0.0000000000000000 -30.948229910445860 -127.64113600963313 142.72864290474456 229.21992526850030 0.0000000000000000 0.0000000000000000 0.0000000000000000 0.0000000000000000 3.0817397972273888 3.1646207373107544 1.0828848838666116 1.0404943282789949 220.95515768043586 220.95102861916189 1.0406137653833383 
-48.746233020777566 -131.22144108198600 145.08527052506989 -48.746233020777566 -131.22144108198606 145.08527052506994 46.305955614279242 -4.2510804994203718e-06 -1.6921917648626336e-05 1.2627524484168035e-05 0.0000000000000000 -3.3375235109640562e-07 6.6564852469657340e-07 -2.4012829839550686e-06 -0.00089322255437640150 -7.9098291975103350e-11 6.7345867427883746e-11 -2.4784484654366711e-10 0.0000000000000000 -48.406431667502837 -130.90513559487593 146.85896726379221 225.63426853136377 0.0000000000000000 0.0000000000000000 0.0000000000000000 0.0000000000000000 3.0739123131067929 3.1485197658002444 1.0746090390574954 1.0372609764097012 211.97573017929003 211.97825449616354 1.0366343954078021 
-53.471970606838148 -85.019837710454311 73.937218792482597 -53.471970606838127 -85.019837710454325 73.937218792482568 148.79165470437357 1.3517833056317633e-05 -3.4960205356543074e-05 0.00015886328708174504 0.0000000000000000 2.7242061308764036e-09 3.0990384868792270e-07 2.5458417688950544e-06 0.00095184293953325908 -3.9573440477024336e-10 3.1420003741906280e-09 5.0942343973783382e-09 0.0000000000000000 -53.009977022357148 -84.940192361847963 77.707205907375524 356.07450292316213 0.0000000000000000 0.0000000000000000 0.0000000000000000 0.0000000000000000 3.0935494148673395 3.1889766234408459 1.0954379694375656 1.0462546256371514 120.09514203605703 120.28878612646619 1.0466141903679231 
-40.679733606648313 -85.693764984633304 63.312028370118604 -40.679733606648348 -85.693764984633304 63.312028370118632 197.50650975434286 1.2293407769919763e-05 -1.4062118860483605e-05 3.9888999559670157e-05 0.0000000000000000 6.7876689008329884e-07 1.4796939512323744e-07 -6.1780676896409134e-07 0.00089057556577282540 1.1989335043502597e-09 4.1837530567015416e-10 -1.2746871005350287e-09 0.0000000000000000 -40.313282635619565 -85.652866469445740 67.489144002613742 334.72004880612383 0.0000000000000000 0.0000000000000000 0.0000000000000000 0.0000000000000000 3.0953690738690409 3.1925494424512988 1.0971898513155478 1.0466267801451885 66.177492440557387 66.158425057058608 1.0474654511512684 
-43.341462008840992 -94.211270347497461 79.637159559980248 -43.341462008840985 -94.211270347497418 79.637159559980262 123.52358687899161 -5.0808522975631204e-05 -8.9534154226527125e-06 3.5787390606214048e-05 0.0000000000000000 3.0707707331417118e-07 -1.8121911386599215e-06 1.7848143111672388e-06 -7.3903821495617090e-06 1.5840179986999786e-09 -1.9452677910498040e-09 3.0067415115193800e-09 0.0000000000000000 -42.930125987095458 -94.071309017270835 83.274511392489799 283.94561953274422 0.0000000000000000 0.0000000000000000 0.0000000000000000 0.0000000000000000 3.0924021878168593 3.1866757186268591 1.0942837290301268 1.0459760723942360 149.78443446245271 149.74609943772614 1.0460753837062269 
-45.356953480107023 -99.069073609464411 63.806271965396533 -45.356953480107002 -99.069073609464368 63.806271965396505 175.36868558355656 1.9939825279862701e-05 -5.6636796365775866e-05 5.8456353264940213e-05 0.0000000000000000 -3.1870170391634650e-10 -2.5615842780268846e-11 -9.6004883509692718e-07 0.00084128237455656616 2.2532044802487946e-09 -3.2042872200405640e-09 -4.8829139710742354e-10 0.0000000000000000 -44.946335306532468 -98.969717126470769 68.015559797458934 339.42980011114588 0.0000000000000000 0.0000000000000000 0.0000000000000000 0.0000000000000000 3.0935162196037127 3.1887716275850937 1.0952642198878915 1.0463454940962635 87.072783988899289 87.061983563288820 1.0465453824979536 
-36.032305370721765 -100.96920189236390 71.422910160443138 -36.032305370721787 -100.96920189236386 71.422910160443109 148.27801219560155 -1.5740654940322765e-05 -1.5015757071782332e-05 2.8490605918683686e-05 0.0000000000000000 3.7180520890700255e-08 -1.0388935872673789e-06 -1.5428728572237208e-07 -0.00030668251007508315 1.9117652898311594e-10 -1.3753533712186506e-09 8.1538784738177138e-10 0.0000000000000000 -35.672109309640206 -100.83293553867907 75.360366609178811 338.44965823895870 0.0000000000000000 0.0000000000000000 0.0000000000000000 0.0000000000000000 3.0974599260320304 3.1968794802011145 1.0994300784386757 1.0470531571466133 122.51115504515033 122.52041605445416 1.0485360673665494 
-49.416244538657956 -112.16450964778532 61.091375533346856 -49.416244538657949 -112.16450964778529 61.091375533346870 145.82581198107974 -2.7631575635366003e-05 -3.6105686603214409e-05 4.9479316822650971e-05 130.61074119519506 -3.4185529407260162e-10 -4.4464987247749832e-11 -9.7886067518260234e-07 -0.00071998437948225108 -1.0028855877170899e-09 -1.3918922768273561e-09 1.9739795088916792e-09 -0.0015815347242748542 -48.975793059600008 -111.99207679200002 65.383142959360015 326.57209562220959 0.0000000000000000 0.0000000000000000 0.0000000000000000 0.0000000000000000 3.0892245929584705 3.1802891031214178 1.0910752153165204 1.0452299376771885 96.175485345998354 96.177612637103124 1.0445405909590124 
-25.504249806922260 -110.64582951593769 63.243264136098276 -25.504249806922275 -110.64582951593773 63.243264136098318 163.33055953754450 -5.3557819692066029e-06 -1.3609649475925123e-05 3.0350557638724963e-05 0.0000000000000000 -2.0545684598083367e-10 -4.2282177759034305e-11 -9.6394998472248972e-07 -0.00058021289160390635 -6.4085775997164774e-12 -3.4035888624176508e-10 5.1578187518950080e-10 0.0000000000000000 -25.239536857883341 -110.48187134057846 67.469656361758609 349.35568362690350 0.0000000000000000 0.0000000000000000 0.0000000000000000 0.0000000000000000 3.0923160729112702 3.1865166503511371 1.0942114139879484 1.0458213854932674 85.334456966179573 85.333932371166014 1.0460435844618388 
-44.480026041236279 -111.43697456122112 72.507459612858867 -44.480026041236286 -111.43697456122116 72.507459612858852 117.91915921042549 -2.1622921817984545e-05 1.0649790784503054e-05 2.6488581929696551e-06 0.0000000000000000 -3.1369420949722837e-10 -4.3408165950609146e-11 -8.9975727668445415e-07 -0.0012562615548783775 -1.0777418627246178e-09 1.3884260449132407e-09 -4.9198067037915982e-10 0.0000000000000000 -44.075852747763513 -111.26860156453857 76.452402029906395 268.59635586333832 0.0000000000000000 0.0000000000000000 0.0000000000000000 0.0000000000000000 3.0877432470912498 3.1768804204022416 1.0891420132453939 1.0459919416323833 145.82827431586563 145.83191682848383 1.0436190328397574 
-58.671427825283772 -106.90080165789095 102.32438529191313 -58.671427825283736 -106.90080165789095 102.32438529191313 41.565977210173514 -1.8503518468698921e-05 -4.7027981935608401e-05 -1.0636403186937192e-05 0.0000000000000000 3.6175517036140475e-07 -1.6112864412167244e-06 -2.4706977143504419e-07 -0.0020404905278098356 2.3359597083276148e-10 -7.9717562650795900e-12 7.2015778992596721e-11 0.0000000000000000 -58.254647241440821 -106.62760994408018 105.33920711112118 241.62621693813244 0.0000000000000000 0.0000000000000000 0.0000000000000000 0.0000000000000000 3.0708754771871880 3.1425011277031563 1.0716273962499507 1.0362255369445859 213.33069825449610 213.33522207336861 1.0351930879008362 
-64.834261539182791 -90.275938552196052 93.457646819776429 -64.834261539182776 -90.275938552196052 93.457646819776471 91.500660981446927 2.6486370707612560e-05 -2.4158474726929474e-05 -2.7589753341101800e-05 0.0000000000000000 1.1736027501966416e-06 -1.6044945219620297e-06 1.2739115312148010e-06 -0.0012846064501754455 2.6714072686845740e-09 -6.7283907933203269e-10 1.5047924389250437e-09 0.0000000000000000 -64.370648572599308 -90.090304358695661 96.688480747766732 239.98138923263960 0.0000000000000000 0.0000000000000000 0.0000000000000000 0.0000000000000000 3.0832952011403023 3.1679540563067459 1.0846637088084530 1.0434403074496019 179.32349384448764 179.30927590639473 1.0414620893421009 
-76.426317463745548 -99.911626115559812 98.219637095369961 -76.426317463745534 -99.911626115559869 98.219637095369905 80.031848468253870 4.4865649154522310e-05 -5.2709055022234835e-05 1.2153341127303302e-05 0.0000000000000000 1.1638050414081356e-06 -1.2986353906255874e-06 4.9157063025098514e-07 -0.0013454361559099772 4.4003107617073065e-10 -4.9120920098915732e-10 5.9948709928345911e-10 0.0000000000000000 -75.913673002404863 -99.702254402691466 101.32606574872912 288.13617662859207 0.0000000000000000 0.0000000000000000 0.0000000000000000 0.0000000000000000 3.0794343340599784 3.1601384116662210 1.0807078041987634 1.0412068409361181 181.78904833384482 181.78988062207125 1.0395743476783954 
-55.573432391583822 -93.795270796112945 100.27158038050148 -55.573432391583793 -93.795270796112931 100.27158038050146 82.439212760554383 1.6784436832739566e-06 -1.9444752746693684e-05 -1.0657590242960100e-05 0.0000000000000000 3.6750484020621637e-07 -1.4454844435339232e-06 2.0845022045833632e-07 -0.0017661920767411655 -3.9863585567990046e-10 4.9633609908363356e-10 -1.0583488064337914e-09 0.0000000000000000 -55.164710769962618 -93.586508083202432 103.32606452766413 222.68531933077850 0.0000000000000000 0.0000000000000000 0.0000000000000000 0.0000000000000000 3.0820840867389312 3.1657609783695815 1.0836856043154770 1.0413667548040013 168.55862443463786 168.52779080678010 1.0410045565271693 
-46.179440774162181 -176.42684078938774 154.18562667012208 -46.179440774162209 -176.42684078938780 154.18562667012205 46.858701022639785 2.1667754873274692e-05 2.5129873420229194e-05 -4.9988758323234220e-05 0.0000000000000000 -3.2339161903927049e-10 -1.3693890466015546e-10 -3.3379962971480381e-07 -0.00054698026751285862 -2.2457839104508240e-10 -2.9203286821152218e-12 2.2164450046471884e-10 0.0000000000000000 -45.762777822239421 -175.89580528354742 155.64915507299250 248.91339099022119 0.0000000000000000 0.0000000000000000 0.0000000000000000 0.0000000000000000 3.0786883700893859 3.1587816743404025 1.0801003354982202 1.0409810445951428 243.57608410507871 243.56393855850339 1.0392741775280845 
-51.894158078994948 -186.14809436716206 167.08198172558249 -51.894158078994941 -186.14809436716203 167.08198172558247 61.462873940031692 6.2133841550372573e-07 2.8916215995310872e-06 1.3825883560192048e-06 64.554575362713223 -3.5598593517427441e-10 -1.5091927707544528e-10 -2.4443926438522112e-07 -0.00052044217658835860 6.1392566111556901e-11 -4.0096267306218785e-11 -4.3128955704830921e-11 -0.00052445684487094173 -51.435495451599998 -185.56281141599996 168.15371392000000 294.81703600272857 0.0000000000000000 0.0000000000000000 0.0000000000000000 0.0000000000000000 3.0907808743644316 3.1834072181373325 1.0926369518577455 1.0446477222167427 244.29440041384700 244.30788534705349 1.0452950921630852 
-43.060436556468687 -171.69599891750283 165.13246050123826 -43.060436556468659 -171.69599891750292 165.13246050123823 59.093667235500668 -7.3244927334646801e-08 -9.2625085822339241e-07 -1.8021720439293081e-05 0.0000000000000000 -3.9513230173881820e-08 2.2106732111495378e-07 -4.5800600615752783e-07 -0.00053624197893562355 -3.2993253464306867e-11 6.0655661581787490e-11 -2.2451108856118315e-10 0.0000000000000000 -42.672974891599750 -171.18173466392949 166.26923354793541 271.88244999766295 0.0000000000000000 0.0000000000000000 0.0000000000000000 0.0000000000000000 3.0891462267653207 3.1800470669525920 1.0909104028583583 1.0438387831732365 243.75405304770362 243.74715951303008 1.0444672782260964 
-59.900237332250832 -178.56032436683634 156.35293120159491 -59.900237332250818 -178.56032436683643 156.35293120159488 70.503900655366323 2.2862262443845534e-05 4.4967629815120290e-06 1.9808435774085491e-06 0.0000000000000000 -4.0165523684798643e-10 -1.4000867132324399e-10 -3.1878213846425757e-07 -0.00059004613842036317 7.6667282965436537e-11 6.9354886178145004e-11 -1.3144829052305484e-10 0.0000000000000000 -59.382734921100123 -178.01738339707751 157.75061606229067 243.94852352315442 0.0000000000000000 0.0000000000000000 0.0000000000000000 0.0000000000000000 3.0896254002774750 3.1810988749058007 1.0914841049547279 1.0439579567329331 221.97719128546001 221.97811866291917 1.0447430495127998 
-30.952964600116196 -102.89503153705306 92.033739974146556 -30.952964600116189 -102.89503153705301 92.033739974146556 67.836011462539375 -2.5547161856492664e-05 -2.5816196091333165e-05 8.1077481373153981e-05 0.0000000000000000 -1.0828521722301012e-07 -5.4424405210701037e-07 -1.3252878597633636e-07 -0.0012656529545033038 -3.7852994926256132e-10 1.3345678653389769e-09 5.5652239907609467e-10 0.0000000000000000 -30.660097366607719 -102.72526557899965 95.328291536857705 204.58703120518373 0.0000000000000000 0.0000000000000000 0.0000000000000000 0.0000000000000000 3.0823971158184942 3.1663298822259001 1.0839392948890907 1.0418039295795123 207.07769343831123 207.07833561417104 1.0411199524342363 
-19.021288701370448 -111.07228907606019 89.938660803363618 -19.021288701370445 -111.07228907606022 89.938660803363604 94.623255222950263 -1.5484851145845051e-05 -3.2290495441411064e-06 5.4503326102399393e-05 0.0000000000000000 -1.6847559458632586e-10 -4.2892023266460917e-11 -7.7897443695462687e-07 -0.0011244863790433679 6.7200429139698826e-10 -7.5634123453484384e-11 -3.6689314574643399e-10 0.0000000000000000 -18.804221549666405 -110.90595113131390 93.354036648627854 267.24800799435923 0.0000000000000000 0.0000000000000000 0.0000000000000000 0.0000000000000000 3.0898036084231681 3.1814525447586468 1.0916592944878836 1.0444744101344512 173.91989687789498 173.91994446004230 1.0448285323567399 
-34.153349829139351 -104.87648443284537 81.404946999144670 -34.153349829139330 -104.87648443284537 81.404946999144627 110.69272292530816 -5.3812475176532061e-06 -1.1668671600734456e-05 4.1190689727975428e-05 0.0000000000000000 -1.4575724253232392e-07 -8.5360721611051746e-07 6.2252334714338196e-08 -0.0011582260557822207 -6.9291478624634555e-10 -1.0154087635210838e-10 2.5886383921013357e-10 0.0000000000000000 -33.815892125380543 -104.71065599625929 85.007910193808286 270.69679205096202 0.0000000000000000 0.0000000000000000 0.0000000000000000 0.0000000000000000 3.0957456803080263 3.1933455532884429 1.0976092214794102 1.0461020592516741 172.39493711972904 172.39646076885489 1.0476643849619902 
-19.139116838695216 -100.48694979135169 92.046732171033511 -19.139116838695209 -100.48694979135168 92.046732171033483 84.239275496183851 5.5751696865712855e-06 -1.0085189075137019e-05 2.8256179265849617e-05 0.0000000000000000 -1.6914694644931672e-10 -2.7652324874338774e-11 -7.6436735607643413e-07 -0.0012071371824631620 9.4777564395576559e-11 1.4311154162086638e-10 1.8937568446180262e-10 0.0000000000000000 -18.921183722278450 -100.37968114352928 95.398064000337470 185.31956687594098 0.0000000000000000 0.0000000000000000 0.0000000000000000 0.0000000000000000 3.0885260768555418 3.1789548082209720 1.0904408222215332 1.0443998137126576 191.11336305591351 191.11381164181932 1.0442466732463012 
-31.441186100967787 -118.21185216541474 172.24999865230282 -31.441186100967794 -118.21185216541473 172.24999865230288 93.130463626105950 -3.1512372149501996e-05 -1.4559833841639229e-05 -3.4153106168044709e-05 0.0000000000000000 -2.9801339314520509e-07 1.5857409851439539e-08 -6.1689348035340939e-07 -0.00053482071615568020 -1.4432492157442184e-10 1.8017465980722324e-10 -1.3717557968514486e-10 0.0000000000000000 -31.124431206993112 -117.97934695114738 173.21200361760444 258.17126679857051 0.0000000000000000 0.0000000000000000 0.0000000000000000 0.0000000000000000 3.0879523097605821 3.1776284053226083 1.0896846952035799 1.0434289607153127 179.48035632822936 179.54892224037033 1.0438806172409807 
-30.943424587685900 -133.44116505211386 163.61115167943140 -30.943424587685882 -133.44116505211383 163.61115167943143 67.826152048344298 -3.7233400481333874e-05 7.4386012712637333e-06 -1.5915282621498231e-06 0.0000000000000000 -2.6057582903390777e-07 5.8819923319475336e-08 -5.8696193931049841e-07 -0.00058988891877849751 -2.0611929733199463e-10 6.5529342755274203e-11 -7.4933578990594786e-11 0.0000000000000000 -30.642131568542830 -133.13454878399213 164.80820313575899 262.24283076768535 0.0000000000000000 0.0000000000000000 0.0000000000000000 0.0000000000000000 3.0841163090033592 3.1696871127397186 1.0855775557134741 1.0415907695466469 207.86188761426206 207.81016054844346 1.0419081144229561 
-43.035664464282590 -120.40180104421258 162.41181030647701 -43.035664464282590 -120.40180104421265 162.41181030647701 46.743828176706259 -4.5356312997919775e-05 -3.3792846850466180e-05 -9.9230126967363300e-06 0.0000000000000000 -2.7856647248238076e-07 5.7528412393975389e-08 -1.5214783630294659e-06 -0.00063563003968419439 8.6916721785305637e-11 -1.9671808846311054e-10 1.8628236551684157e-10 0.0000000000000000 -42.676694985445003 -120.10595080876966 163.70375490782192 268.28772502602959 0.0000000000000000 0.0000000000000000 0.0000000000000000 0.0000000000000000 3.0685694797193621 3.1378702170452808 1.0693020618781572 1.0368886965892279 214.02270723312628 214.06249876770167 1.0340749659321196 
-24.000988224592767 -114.41898092417973 160.54236320135749 -24.000988224592778 -114.41898092417976 160.54236320135749 87.011959935429758 -1.4755047415004723e-05 -9.8501167148171092e-06 -1.3717465622325899e-05 0.0000000000000000 -1.9688067842693613e-10 -4.7702508609859257e-11 -2.8975304555700632e-07 -0.00064045520506216794 -1.5818935849723477e-11 5.4181316842417704e-11 -1.6730115134449845e-10 0.0000000000000000 -23.747323328369049 -114.23396745764113 161.81277151251504 321.01516800445251 0.0000000000000000 0.0000000000000000 0.0000000000000000 0.0000000000000000 3.0893352624538615 3.1804431907678894 1.0911174129450520 1.0438379224891194 193.25534719857475 193.09727132665984 1.0445685674473355 
-6.5891465021123619 -105.12067897934185 106.41673379788753 -6.5891465021123601 -105.12067897934185 106.41673379788750 40.716892508510782 -3.5108158776975797e-06 6.6959164216883607e-06 3.4390346366334507e-05 30.585674882677036 -9.7560001743879354e-11 -3.4327984899107384e-11 -6.6479592319979009e-07 -0.0012500853537678997 1.1282094784792169e-10 -2.8325775616121376e-10 -1.6258431971679239e-10 -0.0011344122747058666 -6.4634479885999987 -104.98755276399999 109.33149947120000 327.67017865987640 0.0000000000000000 0.0000000000000000 0.0000000000000000 0.0000000000000000 3.0898718411140176 3.1815181307255669 1.0916563006586999 1.0442290661499700 284.11981030129471 284.12013359083983 1.0448249790393631 
-11.972098349875575 -97.205839630675257 98.275586486076634 -11.972098349875576 -97.205839630675243 98.275586486076648 71.583586153930327 9.0954440894693845e-06 -9.0552499129288613e-06 2.9375016909743641e-05 63.079077580803656 -1.2826636974772043e-10 -2.2939761201712372e-11 -7.2120689509347358e-07 -0.0012428963634981609 6.1240514801503908e-12 1.9161184181715402e-11 -5.8948006385646051e-11 -0.0012388780169873307 -11.806838433999999 -97.116880539599975 101.43768333439998 212.90238721710071 0.0000000000000000 0.0000000000000000 0.0000000000000000 0.0000000000000000 3.0907088462432304 3.1833484208578779 1.0926514017783153 1.0447983300168384 230.81715926747921 230.81706660046126 1.0453004189864130 
-16.044796393908172 -110.52337764970169 99.987333356146394 -16.044796393908179 -110.52337764970166 99.987333356146351 56.803618415157921 -2.3335704619477368e-05 5.1341051849944572e-06 4.7403331007543437e-05 0.0000000000000000 -1.5149782817136526e-10 -4.2100101182995786e-11 -7.0934599349925520e-07 -0.0013024901757902709 1.6274793656196361e-10 -5.5357974212210081e-11 -6.2677937985715427e-11 0.0000000000000000 -15.849604639409371 -110.36010279166017 103.09742667861765 236.22178992679409 0.0000000000000000 0.0000000000000000 0.0000000000000000 0.0000000000000000 3.0899574060856296 3.1816674477498434 1.0917197573479636 1.0440598455272825 246.41517430980127 246.41523740270262 1.0448544045978603 
-24.003260248600430 -99.636736669371288 99.146199650442952 -24.003260248600437 -99.636736669371260 99.146199650442952 62.497127917029161 -1.5568641811085924e-05 -3.8711575914785915e-05 4.2017976047794977e-05 0.0000000000000000 -1.9689402885880725e-10 -2.6431634658763411e-11 -7.1517431621259675e-07 -0.0013850740107220411 -7.2392784727139590e-10 -2.0509250426614979e-10 -1.6022235175256084e-10 0.0000000000000000 -23.749578654390465 -99.534212460059550 102.28184693721489 211.57004919854941 0.0000000000000000 0.0000000000000000 0.0000000000000000 0.0000000000000000 3.0862957845991161 3.1740754138852889 1.0877855698536296 1.0429997877755324 229.60349808917445 229.60224312223065 1.0429687940188259 
-54.455537668694745 -108.64154975779365 111.06677066491061 -54.455537668694753 -108.64154975779365 111.06677066491058 22.182070023099257 -4.1618396832280617e-06 -3.5097122471909424e-05 2.7923990012206299e-05 0.0000000000000000 -1.8771013338887554e-07 -1.4303644133966540e-06 -1.1223062259291291e-06 -0.0028296248721833774 -1.2259089433335972e-09 -1.5777454229812920e-09 2.2120972757058975e-09 0.0000000000000000 -54.087034329299712 -108.37170302860723 113.84396407125838 191.01171882188567 0.0000000000000000 0.0000000000000000 0.0000000000000000 0.0000000000000000 3.0663617751029353 3.1333544538909113 1.0669928407681297 1.0340520172190768 235.64216353912067 235.64074021709655 1.0329547486302246 
-41.988152350964739 -108.00407124426420 108.12469359603409 -41.988152350964739 -108.00407124426420 108.12469359603406 31.900386444068946 1.2138302341914870e-05 -3.1447759199502953e-05 -2.1161301758859474e-08 0.0000000000000000 -1.0467669685643859e-07 -9.6793153128621053e-07 -1.0060393204149190e-06 -0.0017560574901637756 -4.2247359630095676e-10 4.2205945529161859e-10 2.8748061861290501e-10 0.0000000000000000 -41.690910404717421 -107.74885629568415 110.97670241767709 270.34727434602189 0.0000000000000000 0.0000000000000000 0.0000000000000000 0.0000000000000000 3.0723365883524130 3.1457075191810602 1.0733741680864630 1.0363162681968368 226.33836211341077 226.33898548767050 1.0360377140905188 