# For a description of the Tecplot format see the Tecplot User's guide.
#
Variables=x,y,z,s_u,s_v,s_w,s_p,mono_f_vel_u,mono_f_vel_v,mono_f_vel_w,const,u_nu,v_nu,w_nu,p_nu,x_nu,y_nu,z_nu,const,u_ref,v_ref,w_ref,vol_ref,x_ref,y_ref,z_ref,const,I1,I2,I3,J,p1,p2,p3
Zone f=fepoint, n=356, e=1130, et=brick, c=black
-66.2715 -97.6011 89.2262 -66.271487219741161 -97.601075339233986 89.226234136929776 -291.85719775890595 -6.1005646359188018e-05 6.8703776074892768e-05 0.00042754727928571697 6.1539890429168739e-19 1.1474113306708668e-07 8.1236485871549746e-09 4.8589383260022594e-05 0.0047328196923736559 1.5057650515894848e-09 -1.8706026630987269e-09 -4.5690054825946090e-09 -1.2207784014521561e-19 -65.754724465942431 -97.517594547729473 92.373562431030237 2074.8615187338191 0.0000000000000000 0.0000000000000000 0.0000000000000000 0.0000000000000000 3.0818803411098239 3.1652978021776179 1.0834258080238717 1.0409042452268737 811.33412576884450 745.83407434863705 1.0408772774452393 
-76.331571091660535 -130.81339404996848 75.351147008346757 -76.331571091660550 -130.81339404996851 75.351147008346757 -197.78810909369361 -0.00020528041757301776 -8.6693809127368857e-05 8.4205326897524266e-05 -30.537369080185901 1.2977396843250055e-07 2.4638726003889388e-08 5.4548588443559254e-05 0.0038705061930463022 5.9230715568752969e-09 2.7021340521601326e-09 -3.3515930787427869e-09 -0.0031132835036677821 -75.747104543999981 -130.56019973999997 78.884476808000016 2128.8259272129790 0.0000000000000000 0.0000000000000000 0.0000000000000000 0.0000000000000000 3.0819029899906387 3.1653540951254278 1.0834594908346509 1.0409042452268746 654.64632556155573 640.35909539511999 1.0408931641821617 
-63.923233884845125 -122.00279067008864 67.488564989092296 -63.923233884845118 -122.00279067008864 67.488564989092296 -85.956156010868000 0.00017226450315068373 -1.5864147363524049e-05 3.0960972717959858e-05 115.43031365146997 1.1123212576014119e-07 2.0257584110172647e-08 5.7925485404730643e-05 0.0019239304705018065 -5.4335199049870496e-09 1.8137269373804460e-10 -8.4855312809352407e-10 -0.0048212711947033318 -63.422274742800013 -121.79461816400000 71.240629883439979 1237.7701333319521 0.0000000000000000 0.0000000000000000 0.0000000000000000 0.0000000000000000 3.0821473776605148 3.1658126545770666 1.0836732133430731 1.0409042452268757 389.22100181447462 399.36544467955849 1.0409963541449383 
-56.604019367883303 -132.34054517445429 73.043899301574172 -56.604019367883318 -132.34054517445429 73.043899301574157 -133.26904559991348 0.00022986785057143032 -3.9241234845717084e-05 -0.00011322790058238206 -199.20671368201104 1.0029498190289310e-07 2.5398127101450282e-08 5.5539527262560284e-05 0.0025639551957322947 -5.5696359736970861e-09 2.3977307215652549e-09 3.4314033167639746e-09 0.010603753921444246 -56.152318124399997 -132.07954718800002 76.641416164000006 2090.5778096190215 0.0000000000000000 0.0000000000000000 0.0000000000000000 0.0000000000000000 3.0813314609721050 3.1642126998871514 1.0828898037648500 1.0409042452268740 615.77564606492058 650.53849144214905 1.0406196776281400 
-123.80180423626734 -110.53698607031012 85.969495437638358 -123.80180423626734 -110.53698607031012 85.969495437638344 -605.72561457701056 -2.1765431747267802e-05 2.9511468009762295e-05 -0.00018903029288586966 -702.01091141844131 2.0070898351653982e-07 1.4556126803899616e-08 4.9988118558275105e-05 0.010049397768494579 -1.1425752360180833e-10 -1.1902626414604965e-09 2.5693848377138028e-09 0.011315485571558143 -122.89786571200003 -110.38740333199999 89.207425400000020 2092.2379289329847 0.0000000000000000 0.0000000000000000 0.0000000000000000 0.0000000000000000 3.0820881902626600 3.1657100396560303 1.0836300325897434 1.0409042452268746 1600.7392938223659 1585.1441808917157 1.0409756755936024 
-123.67288649518191 -128.74674891029608 90.366329851805318 -123.67288649518193 -128.74674891029605 90.366329851805332 -509.74078181258153 -2.7047025546272926e-05 -1.7212588515123425e-05 -0.00027808025806819907 -708.17036220556099 2.0051634694318032e-07 2.3611059829509173e-08 4.8099724042849352e-05 0.0087608543870539950 1.7908922069119807e-11 3.7654469282686258e-10 2.5444144931441754e-09 0.0084053938498536724 -122.76981557999994 -128.50411506799998 93.481940963999989 2295.0048277193882 0.0000000000000000 0.0000000000000000 0.0000000000000000 0.0000000000000000 3.0820969832594702 3.1657154390297602 1.0836264184289155 1.0409042452268746 1415.1735200601904 1393.1161015123760 1.0409736654536483 
-87.996918858984799 -119.74983054632838 105.31188889687098 -87.996918858984813 -119.74983054632834 105.31188889687105 -253.33860509446916 -1.2241258434356492e-05 0.00023077600612773414 -0.00021890317640258880 -1.1455655492368198e-19 1.4720556437697316e-07 1.9137285922621313e-08 4.1680762332241279e-05 0.0046221650848058430 2.9311098639214490e-10 -5.5513860049065915e-09 2.4615954200112241e-09 2.0169089448218717e-20 -87.333945182495114 -119.55317056945796 108.01171823852533 1853.2119812635015 0.0000000000000000 0.0000000000000000 0.0000000000000000 0.0000000000000000 3.0816224437639614 3.1647951830406291 1.0831815512646796 1.0409042452268742 853.63198290225660 910.03891732808665 1.0407603201415305 
-122.79396920366113 -119.14284967877428 104.30995454183203 -122.79396920366115 -119.14284967877428 104.30995454183201 -243.54060504336940 -2.1304089378041001e-05 0.00012063433295819335 -0.00024345505741641394 -176.58367878699147 1.9920297131270637e-07 1.8835463355681981e-08 4.2111082693807589e-05 0.0044308913775678756 -6.3901009552240280e-11 -3.2116956110902374e-09 2.4372614075941466e-09 0.0030687399667459550 -121.89681335200000 -118.94929134799999 107.03765745040002 1571.7251237143605 0.0000000000000000 0.0000000000000000 0.0000000000000000 0.0000000000000000 3.0818682272329307 3.1652528915385503 1.0833924610599632 1.0409042452268742 740.55132091224300 759.32244182286456 1.0408612031834445 
-44.546055580497523 -164.04734096051718 121.39753842897767 -44.546055580497523 -164.04734096051712 121.39753842897770 -83.035329813149843 7.6392649112726687e-05 -2.0423993380073652e-05 1.3125638311818721e-05 0.0000000000000000 8.2276701590666690e-08 4.1164575581564839e-08 3.4772143661321315e-05 0.0022677212632913626 -3.8895382365391886e-09 -6.9162074443222689e-10 6.5270914154580712e-10 0.0000000000000000 -44.175503749389662 -163.62432261291502 123.64986896362305 1288.7765825848380 0.0000000000000000 0.0000000000000000 0.0000000000000000 0.0000000000000000 3.0831393384202332 3.1679536665817398 1.0848242143961824 1.0420162568561779 487.71828808905798 775.02052406347559 1.0415500815334053 
-15.654340063986250 -144.18629772791527 134.16586937456469 -15.654340063986247 -144.18629772791525 134.16586937456466 -77.424598276857992 1.0029801773913297e-05 -5.2437700582913527e-05 -3.1317198488607308e-06 17.920352682200786 3.9103661420014653e-08 3.1288516499916597e-08 2.9288278709849180e-05 0.0019364479213073358 -2.1149156025169750e-10 1.5905120015892807e-09 2.5491738928160292e-09 -0.00041036662029795597 -15.478227839600008 -143.86476845600004 136.06298808800005 1207.7015194609139 0.0000000000000000 0.0000000000000000 0.0000000000000000 0.0000000000000000 3.0813582771501875 3.1642148506821353 1.0828642431511144 1.0411318311385762 546.04069956999524 538.35479541156940 1.0406076980531809 
-44.546055580497523 -164.04734096051718 137.48318796108433 -44.546055580497523 -164.04734096051720 137.48318796108435 -137.36525391968951 3.9958071639842380e-05 -5.2212171149681295e-05 1.3841183198265774e-06 0.0000000000000000 8.2276701590666690e-08 4.1164575581564833e-08 2.7863524962867814e-05 0.0027475307950297089 -1.2045530292939358e-09 2.3639197946600621e-09 -4.9084794029081110e-10 0.0000000000000000 -44.175503749389669 -163.62432261291511 139.28801968872074 2260.0113226803110 0.0000000000000000 0.0000000000000000 0.0000000000000000 0.0000000000000000 3.0814796056727158 3.1644744901224553 1.0830028468415727 1.0412578789627596 685.68417785700035 655.56583794463188 1.0406753200718848 
-5.9929650556017720 -161.87062472135105 128.36695277214747 -5.9929650556017720 -161.87062472135102 128.36695277214747 -323.50758598579495 0.00011251335279946789 -0.00011174362590431133 6.4445512044793377e-05 -407.52117400353899 2.4666618136937050e-08 4.0082186958390054e-08 3.1778852886965581e-05 0.0060204885077866886 -2.6886673319566671e-09 3.5186202050997224e-09 -7.4428038957296648e-10 0.0058567688543896225 -5.8818733370400009 -161.45872929999999 130.42539591680000 1840.5999298976626 0.0000000000000000 0.0000000000000000 0.0000000000000000 0.0000000000000000 3.0816777108252915 3.1648671967494146 1.0831974864452041 1.0409042452268726 1040.4610977423779 998.34252310554803 1.0407676415781428 
-9.9181761775792712 -107.24171360189348 182.43480839832924 -9.9181761775792712 -107.24171360189348 182.43480839832927 -173.42818009455132 -1.6224278862371822e-05 3.0644324822249644e-05 2.6854292057793572e-05 -191.33041123389938 3.0532082209711042e-08 1.2917525105127226e-08 8.5572728911742485e-06 0.0032302885172717233 3.2432067266773079e-10 -8.8624136644926356e-10 -3.2835000321838146e-10 0.0037970431997309223 -9.7806680107999995 -107.10896956400003 182.98909712000000 1021.2952016557671 0.0000000000000000 0.0000000000000000 0.0000000000000000 0.0000000000000000 3.0819735112997217 3.1654751908586607 1.0835098108374910 1.0409042452268742 752.37049996990663 748.56226340974513 1.0409177805181840 
-17.756023157601259 -108.77782798826154 193.13737070082590 -17.756023157601255 -108.77782798826152 193.13737070082587 -195.84341346083619 -4.4400922712980229e-05 6.3604082251475673e-05 -1.5103650789128304e-06 -228.99245690435868 4.2244218803610949e-08 1.3681376309637727e-08 3.9606340411779684e-06 0.0034193366835498723 4.6884279639988267e-10 -1.2853897288791712e-09 3.2352844287327808e-10 0.0037223093352685699 -17.565766725200003 -108.63723447200002 193.39391677600000 1230.2822850381203 0.0000000000000000 0.0000000000000000 0.0000000000000000 0.0000000000000000 3.0819636767251386 3.1654538540278159 1.0834982878927213 1.0409042452268733 809.05167085337234 805.92976097381325 1.0409122084246967 
-44.546055580497523 -119.74983054632838 169.65448702529773 -44.546055580497523 -119.74983054632851 169.65448702529784 -226.99862556462497 -2.3324654353240516e-05 4.8823450646711703e-05 6.1541013603716365e-05 0.0000000000000000 8.2276701590666677e-08 1.9137285922621317e-08 1.4046287620139711e-05 0.0039269319635581662 6.4330717943544993e-10 -1.6049716189363395e-09 -7.4230723828530154e-10 0.0000000000000000 -44.175503749389591 -119.55317056945772 170.56432113891603 1872.3464537223574 0.0000000000000000 0.0000000000000000 0.0000000000000000 0.0000000000000000 3.0818756137736969 3.1652824396370747 1.0834150521962103 1.0409042452268733 863.14150221979094 873.22335756254347 1.0408724328562182 
-9.4663070012520834 -124.61864788783048 188.47847285454122 -9.4663070012520816 -124.61864788783046 188.47847285454122 -178.70840334227111 7.4417455334188444e-06 -9.0188157664918811e-05 -1.2291238545388784e-05 -173.18795147916967 2.9856851366250048e-08 2.1558338725302661e-08 5.9615820608982517e-06 0.0030881782039592991 7.0512512219402006e-11 1.7470804938138002e-09 -2.5570468190745366e-12 0.0026803136319712042 -9.3318398883999993 -124.39710846400000 188.86462832000004 1016.3527334425750 0.0000000000000000 0.0000000000000000 0.0000000000000000 0.0000000000000000 3.0819625204787706 3.1654508709942459 1.0834964510806169 1.0409042452268733 786.05639010031166 785.07013245695441 1.0409113016807181 
-44.546055580497523 -164.04734096051718 105.31188889687098 -44.546055580497523 -164.04734096051712 105.31188889687104 -203.76585948248052 1.7427055814798348e-05 -0.00028959915144592045 -9.7430559554675063e-05 4.7769417251489536e-18 8.2276701590666690e-08 4.1164575581564833e-08 4.1680762332241266e-05 0.0039529242860854184 -9.5326857066580470e-10 8.6379460571207110e-09 1.4392831928103192e-09 -9.4527202471952855e-19 -44.175503749389662 -163.62432261291499 108.01171823852535 1450.3671205666894 0.0000000000000000 0.0000000000000000 0.0000000000000000 0.0000000000000000 3.0844597775995011 3.1705736050586655 1.0861229535310430 1.0420746815130628 533.27836303517677 882.79189116715725 1.0421681033854382 
-61.639242781061988 -161.36415324994118 82.673149280456684 -61.639242781061981 -161.36415324994127 82.673149280456698 -609.91913986836209 -0.00019262097189669898 -0.00053867161207504972 -0.00011463123219373868 -255.54359991228793 1.0781914591695416e-07 3.9830318321332214e-08 5.1403864850918524e-05 0.0097182983640389537 4.0642446994941074e-09 1.2802031368333064e-08 4.5320005386581617e-09 0.010781890980057522 -61.153654769600031 -160.95484587600001 86.002782780800032 1645.6757988676138 0.0000000000000000 0.0000000000000000 0.0000000000000000 0.0000000000000000 3.0739947118235738 3.1493439567933397 1.0753564450872768 1.0390853414489072 1503.3631367356063 1466.3426091312949 1.0369953147765683 
-44.603637864211272 -168.44711148954798 79.868738223774272 -44.603637864211272 -168.44711148954792 79.868738223774258 -1028.7461162029692 0.00017757026578325654 -0.00092945186626527097 -0.00016082252282439630 -480.37952237941499 8.2362749814768321e-08 4.3352402057106325e-08 5.2608330147307931e-05 0.014929371438404148 -2.9867067379052828e-09 2.0357618708670211e-08 6.1509147421288521e-09 0.016016099869106872 -44.232698507600013 -168.00161050399998 83.276389748800028 1737.4139093181343 0.0000000000000000 0.0000000000000000 0.0000000000000000 0.0000000000000000 3.0825600693047810 3.1666517608205571 1.0840998196192062 1.0409042452268740 2178.2766439720936 2108.3918728791755 1.0412024746056476 
-44.546055580497523 -186.19609616761156 105.31188889687098 -44.546055580497523 -186.19609616761142 105.31188889687105 -1076.5329280630099 5.7753110786324207e-05 -0.00038580355118240451 -0.00045866892169496934 -3.4739085221844534e-20 8.2276701590666690e-08 5.2178213250098082e-08 4.1680762332241272e-05 0.016004066926454386 -3.8059823189238688e-10 1.0245318397741182e-08 1.5127311761354497e-09 6.2433507574263104e-21 -44.175503749389676 -185.65989863464350 108.01171823852533 1616.4576808433910 0.0000000000000000 0.0000000000000000 0.0000000000000000 0.0000000000000000 3.0797366407122526 3.1609198118195421 1.0811905399408610 1.0404618526228204 2409.3977748763145 2402.3822522676337 1.0398024202421725 
-87.996918858984799 -141.89858575342279 137.48318796108433 -87.996918858984813 -141.89858575342271 137.48318796108430 -208.80380444005434 6.7154714508224367e-06 -4.6094268240140748e-05 1.6982209475740855e-05 0.0000000000000000 1.4720556437697319e-07 3.0150937913031584e-08 2.7863524962867814e-05 0.0041483423438604620 -5.6790148675105809e-11 1.3176308272504129e-09 -5.9290382582105218e-11 0.0000000000000000 -87.333945182495100 -141.58874659118649 139.28801968872074 1877.7986991733408 0.0000000000000000 0.0000000000000000 0.0000000000000000 0.0000000000000000 3.0824511311939249 3.1664382864052825 1.0839947514346693 1.0411180616034275 850.52816783951471 871.39904972214924 1.0411520622786723 
-66.271487219741161 -164.04734096051718 137.48318796108433 -66.271487219741161 -164.04734096051723 137.48318796108438 -171.39643518579041 -6.4347659340317653e-05 4.2911054742399486e-05 5.7165652470310540e-05 2.2704548151465232e-19 1.1474113306708666e-07 4.1164575581564833e-08 2.7863524962867821e-05 0.0037390963939636750 2.3573218523508180e-09 -2.4022970362749311e-10 -5.6678000947607127e-13 -4.5770786925309053e-20 -65.754724465942374 -163.62432261291517 139.28801968872077 2018.1238718776010 0.0000000000000000 0.0000000000000000 0.0000000000000000 0.0000000000000000 3.0807938761082623 3.1630765021138232 1.0822903540097777 1.0413198680727316 739.96370429006390 755.25482411202370 1.0403336099456981 
-87.996918858984799 -164.04734096051718 121.39753842897767 -87.996918858984813 -164.04734096051715 121.39753842897777 -272.11318614653743 -0.00010079129062036874 -5.0683797129908680e-05 3.3645620326525370e-05 0.0000000000000000 1.4720556437697321e-07 4.1164575581564826e-08 3.4772143661321309e-05 0.0063168957014562129 4.5163905809800525e-10 7.6262451285113020e-10 1.8092964355669817e-09 0.0000000000000000 -87.333945182495114 -163.62432261291505 123.64986896362312 1549.0027140339625 0.0000000000000000 0.0000000000000000 0.0000000000000000 0.0000000000000000 3.0839565598559768 3.1694699892534843 1.0855218084917733 1.0414507386849576 873.82904439282720 1054.7649279909901 1.0418811828500270 
-87.996918858984799 -141.89858575342279 121.39753842897767 -87.996918858984813 -141.89858575342271 121.39753842897778 -147.70593483326005 -8.6133826660021520e-05 -4.0917952219240064e-05 0.00012726585798721781 0.0000000000000000 1.4720556437697319e-07 3.0150937913031584e-08 3.4772143661321315e-05 0.0033544759135374588 2.1052913881694725e-09 2.3669995334986758e-09 -1.5749525428817616e-09 0.0000000000000000 -87.333945182495086 -141.58874659118649 123.64986896362313 1389.1126189879024 0.0000000000000000 0.0000000000000000 0.0000000000000000 0.0000000000000000 3.0815141749957711 3.1645542662589077 1.0830470726423231 1.0413726689391039 645.54496728201377 809.16033766637804 1.0406975313693030 
-45.575111245365598 -110.48301779876644 44.454248660281571 -45.575111245365591 -110.48301779876645 44.454248660281571 -987.19327846490944 0.00018536562938636507 5.6962101418527549e-05 -0.00021990198685262498 -1047.6801777005624 8.3814430701378839e-08 1.4529294045662054e-08 6.7818483989512401e-05 0.016505221104234018 -2.0611286351364866e-09 1.0252100865959369e-09 4.6299547100084333e-09 0.016569208677219165 -45.197633928000002 -110.33371083599998 48.847122559999995 1069.0094105005942 0.0000000000000000 0.0000000000000000 0.0000000000000000 0.0000000000000000 3.0819538530147073 3.1654349540807227 1.0834892275084500 1.0409042452268746 2272.3634765608576 2273.5226281723913 1.0409078799169875 
-57.581915499383165 -98.921485562085465 41.758157612356328 -57.581915499383129 -98.921485562085451 41.758157612356321 -1005.0570514552564 3.4602021080238803e-05 7.2468594427665319e-05 -0.00019164595269263181 -886.23022487534024 1.0175625744790473e-07 8.7802257131563977e-09 6.8976426971012472e-05 0.017484758713679684 3.2412458737136517e-10 -1.5440085898115524e-10 3.1421874212855784e-09 0.018912863191854101 -57.123633070400032 -98.831257531200038 46.226036100800002 1475.5774262919704 0.0000000000000000 0.0000000000000000 0.0000000000000000 0.0000000000000000 3.0819465498808203 3.1654201647250257 1.0834817419773222 1.0409042452268744 2205.3238909996139 2204.9410347450926 1.0409042892370861 
-60.618358644727813 -105.71192067390551 53.108796718258951 -60.618358644727799 -105.71192067390551 53.108796718258958 -638.82862829779867 9.3692111138120201e-05 0.00042851837162484192 -0.00046576641535829382 167.48485507486743 1.0629362920400177e-07 1.2156824158449099e-08 6.4101445872211116e-05 0.011161507005333486 9.4177855889108749e-10 -6.3498733405284775e-09 1.2387252537601784e-08 0.022152942381278132 -60.139641125599979 -105.58699381199996 57.260903223199996 1724.6135661994952 0.0000000000000000 0.0000000000000000 0.0000000000000000 0.0000000000000000 3.0819310522367562 3.1653895947445978 1.0834666844917176 1.0409042452268749 1556.5241402296886 1553.5280090516464 1.0408970696184627 
-19.608746010517095 -88.151248954394816 53.559508819474146 -19.608746010517102 -88.151248954394788 53.559508819474139 -809.45119278184211 -2.8939815812232451e-05 -7.8710539858368699e-05 -0.00043177535881623971 -856.52409788999478 4.5012750582440475e-08 3.4246513958002822e-09 6.3907869731316680e-05 0.013769011495867487 -6.5267115660301508e-10 -1.3967640416667482e-10 3.2209184857820263e-09 0.015116824799258076 -19.406020858399991 -88.116056368799974 57.699076624800000 1439.6451283969650 0.0000000000000000 0.0000000000000000 0.0000000000000000 0.0000000000000000 3.0819304822035796 3.1653876269383976 1.0834652725188687 1.0409042452268744 1966.6850378047056 1966.8922883386560 1.0408963900508592 
-59.246018647987285 -179.08820164603409 75.218152129173703 -59.246018647987285 -179.08820164603409 75.218152129173703 -1708.7137317976023 6.6499127501498673e-05 -0.00024917185252072872 -0.00027968009054098880 -1933.8208209902741 1.0424293442334864e-07 4.8643757633026752e-08 5.4605708358579363e-05 0.023050655537019901 -1.7568968564969549e-09 2.0972485865835696e-09 7.8974284141265148e-09 0.036687965421411659 -58.776536899199989 -178.58832514800000 78.755181813599989 1584.4809985467919 0.0000000000000000 0.0000000000000000 0.0000000000000000 0.0000000000000000 3.0839367203402026 3.1694787496422374 1.0855508551870392 1.0409042452268737 3617.7444081561607 3632.3230851828698 1.0419003889818390 
-75.039145286899398 -185.47532771320280 68.501892915144452 -75.039145286899398 -185.47532771320286 68.501892915144467 -1529.2786376215236 0.00046090245438765057 -0.00034733494716930217 4.9870752571319936e-06 -1601.7020081308635 1.2784269073917717e-07 5.1819812607600824e-08 5.7490271635707309e-05 0.021472781330354795 -1.0145372450731975e-08 5.9870530068759194e-09 -4.3744685510882706e-10 0.020235889373312953 -74.463376691600018 -184.94281327599995 72.225767276240006 1182.3928641350060 0.0000000000000000 0.0000000000000000 0.0000000000000000 0.0000000000000000 3.0822787419800015 3.1660723112708880 1.0838014818633190 1.0409042452268744 3192.3179298726232 3193.4771832600168 1.0410575594953060 
-70.280516599335954 -212.25783726775111 83.279502871987503 -70.280516599335940 -212.25783726775109 83.279502871987489 -1732.9542718204209 8.5500544525998583e-05 4.4471101676486317e-05 -0.00023968750243919863 -1804.7281037791777 1.2073184538219373e-07 6.5137612581533930e-08 5.1143442301615501e-05 0.023011763138595397 -1.5946904715799311e-09 1.8329676792778630e-10 1.5935844070012081e-09 0.024204361661166966 -69.736773305200003 -211.58846536000007 86.592267764799999 1391.6778601551057 0.0000000000000000 0.0000000000000000 0.0000000000000000 0.0000000000000000 3.0817414172187090 3.1650282319828267 1.0832952102735189 1.0409042452268737 3730.2325943277169 3727.7272868061391 1.0408152844518261 
-87.473293805982379 -207.92112811874168 87.101695802450564 -87.473293805982379 -207.92112811874173 87.101695802450564 -1324.3861908289996 0.00043944879005403630 -0.00021654954838707207 -0.00025809293323450142 -1524.3456584038943 1.4642310738888220e-07 6.2981160231512234e-08 4.9501850305055932e-05 0.018767706427658064 -8.8832391481457392e-09 5.2010040523588604e-09 2.4353197595451777e-10 0.021733614611179560 -86.813844096400004 -207.27391660800001 90.308128229600001 1955.0875990986240 0.0000000000000000 0.0000000000000000 0.0000000000000000 0.0000000000000000 3.0834227961104710 3.1684324417422949 1.0850183139528178 1.0409042452268740 2932.7846216230855 2943.6214948499428 1.0416443701526199 
-74.948773302570643 -213.25983559606192 97.746795327022269 -74.948773302570643 -213.25983559606192 97.746795327022269 -1383.5034682200826 3.9481758759760937e-05 1.8166052140893320e-05 -8.5385141209350294e-05 -1546.4856290837406 1.2770764087899344e-07 6.5635857360302197e-08 4.4929891103606678e-05 0.018929821981998541 -8.6396587137490412e-10 -3.0889271112617976e-10 5.6424318013320731e-10 0.020164877545135719 -74.373612905599998 -212.58534351999998 100.65708370800000 988.41240310934302 0.0000000000000000 0.0000000000000000 0.0000000000000000 0.0000000000000000 3.0825753410799774 3.1667360481320124 1.0841694946129929 1.0409042452268717 3233.4125710170970 3234.9187402215430 1.0412367615222891 
-66.271487219741161 -186.19609616761156 105.31188889687098 -66.271487219741161 -186.19609616761142 105.31188889687105 -886.62818423805425 0.00018488712175435219 -0.00044036324524343470 -0.00037247834304955814 -1.0386219478911439e-18 1.1474113306708666e-07 5.2178213250098082e-08 4.1680762332241272e-05 0.013521404237800818 -4.5634242982121240e-09 1.0427832891362405e-08 1.9397509292309390e-09 2.0053740570386888e-19 -65.754724465942374 -185.65989863464350 108.01171823852535 1808.0980320372519 0.0000000000000000 0.0000000000000000 0.0000000000000000 0.0000000000000000 3.0788670605832218 3.1590384531496918 1.0801771195033323 1.0401231847728794 1949.9554799332927 1927.9786834184913 1.0393102314386102 
-84.098092225986520 -209.01341951675059 106.35405616457750 -84.098092225986520 -209.01341951675062 106.35405616457750 -941.28836325948612 0.00045246008177237236 -0.00030241916077726727 -0.00041502032465819306 -862.50837859225805 1.4137951651060909e-07 6.3524290883076873e-08 4.1233162364484599e-05 0.014158978910117095 -9.8786471253987779e-09 5.2247866713455813e-09 3.5840821907061657e-09 0.013001629982788919 -83.461357431600007 -208.36062644399999 109.02489266960001 1287.0831768928649 0.0000000000000000 0.0000000000000000 0.0000000000000000 0.0000000000000000 3.0833067552354660 3.1682144802161116 1.0849165783690644 1.0409042452268731 2079.8749447396062 2113.3495408349659 1.0415942542268277 
-41.911663293234255 -130.29682711517546 61.845603708999917 -41.911663293234255 -130.29682711517540 61.845603708999910 -539.10756034525502 0.00017129875841440681 -3.2216272838213730e-05 -0.00016216931278046842 -660.30868624243635 7.8340116976827203e-08 2.4381868468648097e-08 6.0349078411903185e-05 0.0091416663174875602 -3.1716961318153927e-09 2.2023023823698360e-09 4.0288892082878752e-09 0.013734301860233765 -41.558840772800004 -130.04627243999997 65.754654395919971 2180.9238908936368 0.0000000000000000 0.0000000000000000 0.0000000000000000 0.0000000000000000 3.0820475166429735 3.1656234058443764 1.0835839986712126 1.0409042452268744 1514.2688929102226 1515.3534302647315 1.0409532794743726 
-23.013738416683388 -134.71826267650343 51.715115360647381 -23.013738416683392 -134.71826267650343 51.715115360647374 -900.58450137389411 7.2097452938194910e-05 2.4134396341070674e-05 -4.5172508907339664e-05 -916.86868460658138 5.0100847748257848e-08 2.6580457890279515e-08 6.4700017477825611e-05 0.014755676216437186 -9.3686667281959561e-10 -2.9955424550144985e-11 4.3060970099074636e-10 0.013765415836620984 -22.788097858800000 -134.44511465599999 55.905993737599999 935.86986824075086 0.0000000000000000 0.0000000000000000 0.0000000000000000 0.0000000000000000 3.0818795184819385 3.1652840477068631 1.0834126471619092 1.0409042452268740 2055.1357986683665 2053.2877926977412 1.0408712031060696 
-11.171713802294411 -103.71717032954129 58.095257751956673 -11.171713802294413 -103.71717032954126 58.095257751956666 -813.03137732406606 -4.3047991053347731e-06 -0.00014631744697510981 -0.00033020644580528639 -708.89147914022260 3.2405249775213640e-08 1.1164919044848176e-08 6.1959812874157208e-05 0.013468556301193153 -1.1769140311384377e-09 1.4140532313150445e-09 2.1393085427394797e-09 0.012761978021521488 -11.025769398400001 -103.60243655599999 62.108642139439993 1284.9349949311236 0.0000000000000000 0.0000000000000000 0.0000000000000000 0.0000000000000000 3.0819162700154119 3.1653594421268783 1.0834513089551856 1.0409042452268749 1984.4515712552247 1984.1577945157924 1.0408897139450024 
-29.261945431502081 -141.06991309664338 66.285719531524251 -29.261945431502081 -141.06991309664338 66.285719531524251 -611.44705216153898 5.8374677070359123e-05 9.5736894960948387e-05 -0.00023350824541307436 -642.20659418319667 5.9437578053822562e-08 2.9738863871475729e-08 5.8442094982957826e-05 0.010094661238017487 -5.4569581964910996e-10 3.0188127196227494e-10 4.6250925876841846e-09 0.016476639789684878 -28.994254794799993 -140.76430841599998 70.071247290159988 2176.9829965296321 0.0000000000000000 0.0000000000000000 0.0000000000000000 0.0000000000000000 3.0821278934974150 3.1657900284397376 1.0836703042436246 1.0409042452268737 1614.4611629256174 1622.9864947004185 1.0409945356401835 
-104.17826590029048 -194.63323390348867 90.940786325372812 -104.17826590029048 -194.63323390348867 90.940786325372798 -797.89560507285432 2.3815841535895495e-05 -8.7308639635572927e-05 -0.00033703568932135685 -972.30100035396561 1.7138542393602130e-07 5.6373655576980042e-08 4.7853000972430948e-05 0.012959418168832204 -9.6627482482689436e-10 1.3157061418723429e-09 3.2187376182824340e-09 0.012420794907529177 -103.40639267600000 -194.05392295999994 94.040416199999996 2662.2783756828549 0.0000000000000000 0.0000000000000000 0.0000000000000000 0.0000000000000000 3.0823246636346791 3.1662174796892448 1.0839014106752514 1.0409042452268737 1842.6877376209452 1833.9684135718528 1.0411069037406340 
-83.138779498944629 -162.71760579416147 74.237584701721502 -83.138779498944601 -162.71760579416147 74.237584701721502 -915.12424781541017 -5.9721352549327242e-05 -0.00014251620238812747 -0.00013860309244044251 -880.38092494462353 1.3994601352762537e-07 4.0503353726517588e-08 5.5026851842221447e-05 0.014718265771719695 1.3087984238684992e-09 2.9305315777551594e-09 5.0315029199825308e-09 0.019451428080517100 -82.508500824799995 -162.30138233600007 77.801893530400037 2229.3857910936085 0.0000000000000000 0.0000000000000000 0.0000000000000000 0.0000000000000000 3.0834440957857367 3.1684738012554106 1.0850383276184052 1.0409042452268737 2119.3782662480439 2116.5601975443419 1.0416539538936123 
-28.251988911827961 -125.28701934810202 125.41895081200434 -28.251988911827969 -125.28701934810206 125.41895081200435 -41.945647408176697 1.2658805929593826e-05 -2.0486006232252233e-05 2.6793423850725353e-05 -2.0005708094622191e-19 5.7928394692208229e-08 2.1890702639471016e-08 3.3044988978936374e-05 0.00093655519960251761 -1.2548769753086126e-10 5.0690747807756278e-10 -6.3276568089152737e-10 3.7954966988456526e-20 -27.991095225219734 -125.06206457489009 127.55940664489751 1124.7619503421174 0.0000000000000000 0.0000000000000000 0.0000000000000000 0.0000000000000000 3.0806075449871275 3.1626415731410118 1.0820412761774467 1.0410727996257074 443.27725179661508 450.69939237970226 1.0402134228659572 