# For a description of the Tecplot format see the Tecplot User's guide.
#
Variables=x,y,z,s_u,s_v,s_w,s_p,mono_f_vel_u,mono_f_vel_v,mono_f_vel_w,const,u_nu,v_nu,w_nu,p_nu,x_nu,y_nu,z_nu,const,u_ref,v_ref,w_ref,vol_ref,x_ref,y_ref,z_ref,const,I1,I2,I3,J,p1,p2,p3
Zone f=fepoint, n=356, e=1130, et=brick, c=black
-66.7953 -97.6854 85.8935 -66.795303731367980 -97.685418635497641 85.893450062095312 -124.85407625293628 -5.6656125507237333e-06 8.0603591198556985e-06 -7.1654653938235239e-06 -1.3870073175366045e-20 1.6961524101910541e-08 9.1071428176547887e-10 3.0163684806794322e-05 0.00088705282033581104 3.5584611715724676e-11 -5.4703745220820943e-11 2.8554361148052736e-11 1.6787853573533431e-21 -65.754724465942431 -97.517594547729473 92.373562431030237 2074.8615187338191 0.0000000000000000 0.0000000000000000 0.0000000000000000 0.0000000000000000 3.1694373317707183 3.3452913272926414 1.1759231187655075 1.0844482845501633 1154.1417517338848 1164.7929411329958 1.0843998996454864 
-76.924015546891752 -131.06920430659216 71.609616355349516 -76.924015546891738 -131.06920430659216 71.609616355349530 -129.75701741153915 -2.2107535870268840e-05 2.7628258253392111e-07 1.8412663725489764e-08 -110.60465188032070 1.9183738403372175e-08 2.7621708253988686e-09 3.3863085270979802e-05 0.00090423381556343075 1.3039462654023600e-10 -3.9199927405889813e-12 6.0958006823002028e-12 0.00086346632691880660 -75.747104543999981 -130.56019973999997 78.884476808000016 2128.8259272129790 0.0000000000000000 0.0000000000000000 0.0000000000000000 0.0000000000000000 3.1695007258127226 3.3454244350621973 1.1759929613992792 1.0844482845501637 1168.7273823747876 1163.9227923849560 1.0844321068423157 
-64.431031067061951 -122.21311396768233 63.515410313405233 -64.431031067061951 -122.21311396768235 63.515410313405241 -124.48692676978328 5.9339607455459454e-06 2.8164179236558252e-06 -2.6565572879530816e-07 -113.41278644017413 1.6442807920791225e-08 2.2710190394903403e-09 3.5959420904063670e-05 0.00090206025937266852 -3.3519396709569376e-11 -5.5125542387482327e-11 3.4730231506124284e-11 0.00077829788555864525 -63.422274742800013 -121.79461816400000 71.240629883439979 1237.7701333319521 0.0000000000000000 0.0000000000000000 0.0000000000000000 0.0000000000000000 3.1696101709291806 3.3456426219384516 1.1761016181122510 1.0844482845501633 1148.6434237135766 1147.4633796761516 1.0844821665106761 
-57.061886286347473 -132.60423973339383 69.234399374122845 -57.061886286347473 -132.60423973339383 69.234399374122845 -111.06905937668839 1.4789313325824675e-05 4.6124069112197562e-06 -1.0205800234855248e-05 -116.67841890394858 1.4826037203485853e-08 2.8472947333213479e-09 3.4478247773250814e-05 0.00083476365382014275 -5.9030379513672667e-11 2.4810729738513161e-12 8.0636980253594700e-11 0.0010158556903182949 -56.152318124399997 -132.07954718800002 76.641416164000006 2090.5778096190215 0.0000000000000000 0.0000000000000000 0.0000000000000000 0.0000000000000000 3.1693883826056681 3.3451981175345442 1.1758790112653463 1.0844482845501628 1133.5553921380690 1123.9460448313914 1.0843796148646325 
-124.71808142734982 -110.68811426382422 82.540771006756415 -124.71808142734980 -110.68811426382422 82.540771006756401 -163.74606655682243 -1.3366842043967214e-06 3.2908761826957811e-06 -1.9116206709486646e-05 -171.00927508464790 2.9669664752818292e-08 1.6318369988610466e-09 3.1032002278053035e-05 0.0010064052453611818 -8.1445721742467219e-12 -2.8112141974789974e-11 3.4661560871485675e-11 0.0010184875737551597 -122.89786571200003 -110.38740333199999 89.207425400000020 2092.2379289329847 0.0000000000000000 0.0000000000000000 0.0000000000000000 0.0000000000000000 3.1695611207551155 3.3455450073394397 1.1760530948327987 1.0844482845501642 1238.3681954732981 1238.1552174454009 1.0844598180340321 
-124.58828423440518 -128.99188959087093 87.067131888388701 -124.58828423440515 -128.99188959087090 87.067131888388730 -157.02936676231715 -1.5915770976543160e-06 -2.6791677387405523e-07 -1.5359852425683557e-05 -166.81795536921703 2.9641187754281262e-08 2.6469685332486396e-09 2.9859710453550292e-05 0.00098011895582372603 -2.8352375176049368e-12 -1.1502387145130262e-11 1.0393139621635359e-11 0.00092556936335666485 -122.76981557999994 -128.50411506799998 93.481940963999989 2295.0048277193882 0.0000000000000000 0.0000000000000000 0.0000000000000000 0.0000000000000000 3.1695910718126754 3.3456029201476856 1.1760810129998125 1.0844482845501637 1221.2915389636378 1222.9397819428837 1.0844726672633944 
-88.668942057186186 -119.94852236984168 102.45297257361902 -88.668942057186129 -119.94852236984164 102.45297257361895 -131.56586894419593 -1.1299171326637149e-05 4.8567346825330368e-07 -1.3005688166046906e-05 -4.1359109126773078e-20 2.1760563823081114e-08 2.1454208409821263e-09 2.5874898859967740e-05 0.00089521120394748881 7.9013232613025489e-11 -4.2294564531125878e-12 2.6796708154581542e-11 5.6769161822274300e-21 -87.333945182495114 -119.55317056945796 108.01171823852533 1853.2119812635015 0.0000000000000000 0.0000000000000000 0.0000000000000000 0.0000000000000000 3.1694176344232390 3.3452616194697766 1.1759133074021051 1.0844482845501635 1174.4146961270558 1175.1961103492172 1.0843953889345703 
-123.70337113936195 -119.33840781068169 101.42152220650959 -123.70337113936195 -119.33840781068169 101.42152220650961 -142.76789480728996 -8.7066800526220886e-07 2.6401919233888929e-06 -8.9856309934206366e-06 -139.79653269363155 2.9447043276009662e-08 2.1115852399944406e-09 2.6142036386289643e-05 0.00093036431287965419 -6.6258501948516935e-13 -1.8607836099716198e-11 2.5808373738829943e-11 0.00093168188899587611 -121.89681335200000 -118.94929134799999 107.03765745040002 1571.7251237143605 0.0000000000000000 0.0000000000000000 0.0000000000000000 0.0000000000000000 3.1695366088282104 3.3454858091321609 1.1760182098389025 1.0844482845501631 1193.7769077910109 1191.2071074056273 1.0844437348119185 
-44.921665405549710 -164.47472983852984 119.01248970330130 -44.921665405549703 -164.47472983852990 119.01248970330130 -96.188303946109841 2.1248112867860529e-05 -2.3861663907636140e-05 9.5770458484997505e-06 0.0000000000000000 1.2162498258527776e-08 4.6148357357722611e-09 2.1586114314686707e-05 0.00074955861918387517 -1.5283836751552662e-10 1.6478760120773156e-10 -7.2950607666057803e-12 0.0000000000000000 -44.175503749389662 -163.62432261291502 123.64986896362305 1288.7765825848380 0.0000000000000000 0.0000000000000000 0.0000000000000000 0.0000000000000000 3.1688995934064721 3.3441393525398109 1.1753071837144173 1.0844905708788186 1097.5554278868890 1110.0848608523661 1.0841160313623490 
-15.832856201913559 -144.51114896794081 132.15696326583139 -15.832856201913559 -144.51114896794076 132.15696326583137 -95.919208698439974 5.1736063732463824e-06 -1.6373432560676674e-05 6.3277489114210428e-06 -95.983059737648290 5.7804718234244490e-09 3.5076744842044150e-09 1.8181799148919708e-05 0.00074707163925750216 -2.3929554360772539e-11 1.1864114070223454e-10 -1.9495677621191944e-11 0.00073416235358309456 -15.478227839600008 -143.86476845600004 136.06298808800005 1207.7015194609139 0.0000000000000000 0.0000000000000000 0.0000000000000000 0.0000000000000000 3.1686824804200109 3.3437283721289428 1.1751141921072628 1.0843727388868425 1108.9654203074476 1109.4010232022613 1.0840269303113652 
-44.921665405549710 -164.47472983852984 135.57200683298356 -44.921665405549696 -164.47472983852995 135.57200683298367 -117.34499798319348 2.5639322838728544e-06 -1.2006979913567998e-05 9.3432803529541088e-06 0.0000000000000000 1.2162498258527778e-08 4.6148357357722603e-09 1.7297329758747537e-05 0.00083222354086412735 -1.8742717051491679e-11 9.9537510735865815e-11 -3.9108311870752573e-11 0.0000000000000000 -44.175503749389669 -163.62432261291511 139.28801968872074 2260.0113226803110 0.0000000000000000 0.0000000000000000 0.0000000000000000 0.0000000000000000 3.1693476469163602 3.3451029398552232 1.1758242277134223 1.0843951643584295 1151.8572339183602 1146.4531833167928 1.0843542968752056 
-6.1055731645644995 -162.28677575354070 126.18721621771510 -6.1055731645645004 -162.28677575354067 126.18721621771510 -132.05041516195868 1.4573193332425472e-05 -1.2774246977704979e-05 6.4062140328294670e-06 -139.71646594348496 3.6463252139906639e-09 4.4934974630095334e-09 1.9727916633627274e-05 0.00087409371134398984 -8.3020054547136594e-11 9.7070574632496627e-11 -2.4652996213842368e-11 0.00085903790927916921 -5.8818733370400009 -161.45872929999999 130.42539591680000 1840.5999298976626 0.0000000000000000 0.0000000000000000 0.0000000000000000 0.0000000000000000 3.1696898607642008 3.3458154113404319 1.1761950184167236 1.0844482845501637 1178.8999017461904 1178.2723045407433 1.0845252483677865 
-10.057561316529437 -107.37582912132605 181.84785830865874 -10.057561316529435 -107.37582912132606 181.84785830865874 -144.06553749802032 -3.4514501553648599e-06 1.9583847166602971e-06 7.0959782305382855e-06 -145.81297928339811 4.5133830284260776e-09 1.4481403853849881e-09 5.3122485841328171e-06 0.00088780701946994248 3.1112233377898094e-14 -2.1221206960739133e-11 -7.7369627883897803e-12 0.00090829233681170233 -9.7806680107999995 -107.10896956400003 182.98909712000000 1021.2952016557671 0.0000000000000000 0.0000000000000000 0.0000000000000000 0.0000000000000000 3.1695348347594421 3.3454907226097528 1.1760250690454666 1.0844482845501637 1197.7082648825419 1197.3028861958956 1.0844468932261222 
-17.948876570511491 -108.91987408510695 192.86570769210695 -17.948876570511491 -108.91987408510695 192.86570769210695 -150.95288821373401 -5.4250558591170507e-06 2.2155088295486071e-06 3.4379802674178452e-06 -154.57047686908081 6.2447203519333527e-09 1.5337838776829922e-09 2.4587123395036774e-06 0.00089037154827175118 8.0635257006960305e-13 -2.4182205109610550e-11 -3.4244865058624702e-12 0.00091899313228428607 -17.565766725200003 -108.63723447200002 193.39391677600000 1230.2822850381203 0.0000000000000000 0.0000000000000000 0.0000000000000000 0.0000000000000000 3.1695286587395146 3.3454779067184157 1.1760184210278692 1.0844482845501635 1213.1852815900490 1212.6828016117804 1.0844438263376064 
-44.921665405549710 -119.94852236984168 168.69104109234814 -44.921665405549781 -119.94852236984177 168.69104109234826 -145.15388285688746 1.0951483172390854e-06 5.9838974744777541e-06 1.0748935827160728e-05 0.0000000000000000 1.2162498258527778e-08 2.1454208409821263e-09 8.7197606664091137e-06 0.00088844616915734285 -1.0693269825033815e-12 -3.6497231683915045e-11 6.4206992584023725e-12 0.0000000000000000 -44.175503749389591 -119.55317056945772 170.56432113891603 1872.3464537223574 0.0000000000000000 0.0000000000000000 0.0000000000000000 0.0000000000000000 3.1695820952427871 3.3455871011205125 1.1760742088847100 1.0844482845501631 1199.3773092093750 1201.3248979618952 1.0844695716744321 
-9.6026095762053298 -124.84247620715327 188.06956324441134 -9.6026095762053298 -124.84247620715327 188.06956324441131 -146.03923772896346 -2.8146647016606693e-06 -2.6096691066753717e-06 5.2190377694880964e-06 -146.05879895856165 4.4135683996415764e-09 2.4168375079014481e-09 3.7008760056522756e-06 0.00088582995487856693 -1.0111893874235822e-11 1.3610985523490802e-11 -8.8630398684563423e-12 0.00089494460222589670 -9.3318398883999993 -124.39710846400000 188.86462832000004 1016.3527334425750 0.0000000000000000 0.0000000000000000 0.0000000000000000 0.0000000000000000 3.1695255249774545 3.3454715134707951 1.1760151596735351 1.0844482845501662 1202.2161483330535 1201.7641720384420 1.0844423210615550 
-44.921665405549710 -164.47472983852984 102.45297257361902 -44.921665405549703 -164.47472983852992 102.45297257361896 -114.19610764875546 7.1156214250550607e-06 -3.2872651102822238e-05 -2.7635578598543774e-05 2.7698680347907942e-19 1.2162498258527775e-08 4.6148357357722603e-09 2.5874898859967740e-05 0.00080981237120229582 -4.6481165281982722e-11 2.1645690879908505e-10 4.3718677945917669e-11 -3.8120387800534633e-20 -44.175503749389662 -163.62432261291499 108.01171823852535 1450.3671205666894 0.0000000000000000 0.0000000000000000 0.0000000000000000 0.0000000000000000 3.1702339913924935 3.3469765265257370 1.1768131994416147 1.0846826662104794 1146.0673714830552 1158.2435011052285 1.0848101671903303 
-62.131459018362342 -161.77768949559731 79.147317696322176 -62.131459018362335 -161.77768949559731 79.147317696322190 -147.84866564411558 -1.0235839590669786e-05 -2.9734012754635893e-05 -7.6997723096042002e-06 -152.21038477752288 1.5938289049666210e-08 4.4652460617911061e-09 3.1910879981111862e-05 0.00091411620600335920 5.6936476260283192e-11 1.7557409530665830e-10 7.8530185160006182e-11 0.0010083961696541687 -61.153654769600031 -160.95484587600001 86.002782780800032 1645.6757988676138 0.0000000000000000 0.0000000000000000 0.0000000000000000 0.0000000000000000 3.1689592235226423 3.3443420559943462 1.1754523169853646 1.0843192032343409 1209.8588157258791 1209.5107445040910 1.0841827834909499 
-44.979640504449655 -168.89721529106436 76.260291416213946 -44.979640504449655 -168.89721529106436 76.260291416213946 -162.83837209463962 9.3308640241555111e-07 -2.9755640616339112e-05 -4.9419844019901975e-06 -144.47991530468269 1.2175214419984925e-08 4.8601073165954745e-09 3.2658597046264504e-05 0.00095974973673893622 2.8555452840829312e-13 1.8215436364045245e-10 5.4166123862243070e-11 0.00097569711034554767 -44.232698507600013 -168.00161050399998 83.276389748800028 1737.4139093181343 0.0000000000000000 0.0000000000000000 0.0000000000000000 0.0000000000000000 3.1695271872839323 3.3454643284831325 1.1760061152186165 1.0844482845501633 1230.2398846343726 1228.6291938318859 1.0844381638417564 
-44.921665405549710 -186.73783357287391 102.45297257361901 -44.921665405549689 -186.73783357287380 102.45297257361892 -168.65787177990600 -7.3021571613123829e-07 -1.5097781911918173e-05 -1.2913563180394131e-05 -1.8898222011619920e-20 1.2162498258527776e-08 5.8495287502680071e-09 2.5874898859967750e-05 0.00097950774554428962 1.2162045356282029e-11 1.0676189194124832e-10 3.5793377840145451e-12 2.6259104437036576e-21 -44.175503749389676 -185.65989863464350 108.01171823852533 1616.4576808433910 0.0000000000000000 0.0000000000000000 0.0000000000000000 0.0000000000000000 3.1693449747240834 3.3450958745243868 1.1758197336322023 1.0844100719512344 1242.4590036048401 1241.5721577663478 1.0843522038331790 
-88.668942057186186 -142.21162610418577 135.57200683298356 -88.668942057186129 -142.21162610418571 135.57200683298367 -135.10884090556408 -4.8475482475368596e-06 -4.0003076414756248e-06 4.7372703982789270e-06 0.0000000000000000 2.1760563823081114e-08 3.3801424992319085e-09 1.7297329758747537e-05 0.00089341913614181755 3.4023039961161266e-11 2.8030919527597582e-11 -8.4412783411318516e-12 0.0000000000000000 -87.333945182495100 -141.58874659118649 139.28801968872074 1877.7986991733408 0.0000000000000000 0.0000000000000000 0.0000000000000000 0.0000000000000000 3.1690969397791475 3.3445742245928041 1.1755458415023547 1.0842375902006365 1182.5873289033336 1182.6105672164124 1.0842257467069851 
-66.795303731367952 -164.47472983852984 135.57200683298356 -66.795303731367923 -164.47472983852998 135.57200683298370 -127.66708787328731 -1.0740000876894024e-05 -5.0098600205437853e-06 7.6467968799661745e-06 -4.3945322722508232e-21 1.6961524101910541e-08 4.6148357357722603e-09 1.7297329758747537e-05 0.00086764037365315793 7.7011132453831061e-11 4.3477961981798396e-11 -2.0127932037437352e-11 5.4346787650584170e-22 -65.754724465942374 -163.62432261291517 139.28801968872077 2018.1238718776010 0.0000000000000000 0.0000000000000000 0.0000000000000000 0.0000000000000000 3.1690345467616474 3.3444466739011611 1.1754805434696038 1.0843168269027690 1167.7891908187285 1170.1381991491219 1.0841957999400880 
-88.668942057186186 -164.47472983852984 119.01248970330130 -88.668942057186129 -164.47472983852995 119.01248970330123 -143.25475137501078 -7.4380751096587538e-06 -6.4627107662745457e-06 -4.7017016703622435e-06 0.0000000000000000 2.1760563823081114e-08 4.6148357357722603e-09 2.1586114314686711e-05 0.00091786352186537155 4.9090272609453800e-11 4.2049565131155387e-11 6.1210167831008215e-12 0.0000000000000000 -87.333945182495114 -163.62432261291505 123.64986896362312 1549.0027140339625 0.0000000000000000 0.0000000000000000 0.0000000000000000 0.0000000000000000 3.1697464708172300 3.3459277353249215 1.1762506510023909 1.0844701100180534 1198.8782916023049 1197.5256824209216 1.0845508654034004 
-88.668942057186186 -142.21162610418577 119.01248970330130 -88.668942057186129 -142.21162610418571 119.01248970330120 -120.58591753219207 -2.0777586499237801e-05 -1.2721753460033706e-05 1.7073134716231446e-06 0.0000000000000000 2.1760563823081114e-08 3.3801424992319085e-09 2.1586114314686711e-05 0.00084623498171102125 1.4030506615762279e-10 8.2619649386381744e-11 3.9472028735756742e-12 0.0000000000000000 -87.333945182495086 -141.58874659118649 123.64986896362313 1389.1126189879024 0.0000000000000000 0.0000000000000000 0.0000000000000000 0.0000000000000000 3.1691629840052364 3.3446552291283500 1.1755596615284296 1.0844113995785967 1153.0073993364226 1155.2853786262808 1.0842325125570234 
-45.957741088842440 -110.63386736748599 39.802525418324095 -45.957741088842447 -110.63386736748596 39.802525418324088 -194.46290800967233 6.0323842762313461e-06 9.4752903084585097e-06 -1.2885013356030821e-05 -194.38285916458605 1.2389809539437024e-08 1.6288413950960032e-09 4.2100871381123284e-05 0.0011317704859221934 1.2735757831743891e-11 -2.0202283830209743e-11 6.2797642525939594e-11 0.0010938211126463068 -45.197633928000002 -110.33371083599998 48.847122559999995 1069.0094105005942 0.0000000000000000 0.0000000000000000 0.0000000000000000 0.0000000000000000 3.1695413294432933 3.3455039156860900 1.1760317684738748 1.0844482845501637 1285.6579599319464 1285.6420918402366 1.0844499832191681 
-58.046453435844604 -99.012645808689484 37.027010149127875 -58.046453435844583 -99.012645808689456 37.027010149127854 -213.67394070991367 -6.1302692216473776e-06 1.0639070022662237e-05 -1.7574871803902149e-05 -214.93695397949975 1.5042044304580671e-08 9.8432828554706475e-10 4.2819707982033606e-05 0.0012017735773232651 6.8496888668248892e-11 -1.5737657967191504e-11 6.0160912321789516e-11 0.0012821532083673000 -57.123633070400032 -98.831257531200038 46.226036100800002 1475.5774262919704 0.0000000000000000 0.0000000000000000 0.0000000000000000 0.0000000000000000 3.1695383021865364 3.3454976188011467 1.1760284950184809 1.0844482845501635 1321.6236542063127 1321.5585820149090 1.0844484748828582 
-61.103610608188411 -105.83813825204626 48.712028048583470 -61.103610608188426 -105.83813825204628 48.712028048583456 -182.47707956212818 1.1015033765985943e-06 3.0944191085129897e-05 -3.0338426984335994e-05 -133.66937062949344 1.5712778439480601e-08 1.3628679296218138e-09 3.9793380354424805e-05 0.0010948346941946983 6.3239248803649998e-11 -8.4890589599647577e-11 1.8215076756638057e-10 0.0013797449879776771 -60.139641125599979 -105.58699381199996 57.260903223199996 1724.6135661994952 0.0000000000000000 0.0000000000000000 0.0000000000000000 0.0000000000000000 3.1695298255344775 3.3454802565245654 1.1760196048706093 1.0844482845501637 1260.1662189235406 1260.5410438593474 1.0844443784293107 
-19.814238339870105 -88.186805141867524 49.176017690141364 -19.814238339870109 -88.186805141867552 49.176017690141364 -186.48174099082811 -4.7102779775634138e-06 3.1462772312828992e-06 -2.5322254976239249e-05 -187.92881532038263 6.6539765641859824e-09 3.8392489187799588e-10 3.9673210693536021e-05 0.0011051449087849158 9.4477831913081414e-12 -6.4908392190764807e-11 1.3003584492384306e-11 0.0011058403772161369 -19.406020858399991 -88.116056368799974 57.699076624800000 1439.6451283969650 0.0000000000000000 0.0000000000000000 0.0000000000000000 0.0000000000000000 3.1695348877328873 3.3454905812091336 1.1760248691021074 1.0844482845501635 1273.9838228809272 1274.1029711625474 1.0844468046077880 
-59.721908773803037 -179.59324275559999 71.472703576326793 -59.721908773803051 -179.59324275559996 71.472703576326793 -192.78841739955067 -3.2708916402689771e-06 -5.8681535591995972e-06 -7.8592426232714548e-06 -198.52396969701527 1.5409639370078665e-08 5.4533187965333249e-09 3.3898544598898184e-05 0.0010526950656485428 2.2514002843532608e-11 1.0199047555385098e-11 6.4046064772495732e-11 0.0011565654921495386 -58.776536899199989 -178.58832514800000 78.755181813599989 1584.4809985467919 0.0000000000000000 0.0000000000000000 0.0000000000000000 0.0000000000000000 3.1697762597892996 3.3459950674654877 1.1762884076918638 1.0844482845501633 1286.7500144369512 1287.1846314698073 1.0845683544212239 
-75.622773063624606 -186.01334396978302 64.558589895053643 -75.622773063624621 -186.01334396978299 64.558589895053629 -199.58465351012168 -1.6453506456296336e-06 -4.8167502024844323e-06 -2.0172829793467049e-06 -200.91154053452178 1.8898248549392704e-08 5.8093690968874512e-09 3.5689245606818083e-05 0.0010803196402990058 6.5750744717129084e-13 6.1628773118537669e-12 1.6873069786336583e-11 0.0010514755566186781 -74.463376691600018 -184.94281327599995 72.225767276240006 1182.3928641350060 0.0000000000000000 0.0000000000000000 0.0000000000000000 0.0000000000000000 3.1695023310407238 3.3454124736064297 1.1759790215436579 1.0844482845501631 1299.0994715123250 1299.0296009919862 1.0844256426020085 
-70.831681932868619 -212.93412497547965 79.771533875193768 -70.831681932868619 -212.93412497547962 79.771533875193768 -195.80109180774588 9.3283737184304885e-07 1.0761973635276097e-06 -7.5625514691510457e-06 -195.56160053448974 1.7847101824175482e-08 7.3023843638608810e-09 3.1749212897835832e-05 0.0010616829454582115 -2.6187459822609365e-12 2.7354447204442981e-12 1.6286404121160916e-11 0.0010667473047434382 -69.736773305200003 -211.58846536000007 86.592267764799999 1391.6778601551057 0.0000000000000000 0.0000000000000000 0.0000000000000000 0.0000000000000000 3.1695920513370668 3.3456200024731144 1.1760974596585441 1.0844482845501635 1289.2697771478145 1289.2270374725172 1.0844802994652638 
-88.141744935494799 -208.57502647322380 83.706324893649082 -88.141744935494813 -208.57502647322374 83.706324893649054 -190.14388106831044 5.1007712265940318e-06 -2.4263009578012825e-06 -8.9067910635477435e-06 -201.05378468466901 2.1644890130234629e-08 7.0606364088732213e-09 3.0730133003586957e-05 0.0010492594708672795 -2.1666070833385596e-11 1.5273056803470252e-11 -1.6532182081323043e-11 0.0010640298335691434 -86.813844096400004 -207.27391660800001 90.308128229600001 1955.0875990986240 0.0000000000000000 0.0000000000000000 0.0000000000000000 0.0000000000000000 3.1697087957955081 3.3458542194807683 1.1762149138854738 1.0844482845501637 1285.8270689421365 1285.5791831591816 1.0845344596464703 
-75.531784579123212 -213.94129637252854 94.665018701597006 -75.531784579123212 -213.94129637252854 94.665018701597006 -184.74035295045888 -1.4395214113135048e-07 4.0740357326185658e-07 -2.6729723404152284e-06 -188.24296431901922 1.8878294510971116e-08 7.3582276938211050e-09 2.7891917589784043e-05 0.0010287993922565126 2.7684744853061150e-13 -1.3191486401691569e-12 8.1257595307309602e-12 0.0010399679839392245 -74.373612905599998 -212.58534351999998 100.65708370800000 988.41240310934302 0.0000000000000000 0.0000000000000000 0.0000000000000000 0.0000000000000000 3.1697155738637375 3.3458816055537555 1.1762358411148137 1.0844482845501633 1275.4484312846096 1275.5415180039286 1.0845441322893650 
-66.795303731367952 -186.73783357287391 102.45297257361901 -66.795303731367923 -186.73783357287380 102.45297257361894 -169.43533131832632 1.9990581023013602e-06 -1.1231999489766184e-05 -1.4043061697567276e-05 -1.4148700396288955e-19 1.6961524101910541e-08 5.8495287502680071e-09 2.5874898859967743e-05 0.00098623699793230811 -3.6393339597984445e-12 8.0601705948775794e-11 5.6299559469695629e-12 1.9444204514151488e-20 -65.754724465942374 -185.65989863464350 108.01171823852535 1808.0980320372519 0.0000000000000000 0.0000000000000000 0.0000000000000000 0.0000000000000000 3.1688752340162729 3.3440727448779590 1.1752645975209131 1.0842696263616940 1241.5744497211203 1241.1164627547278 1.0840960841816096 
-84.743518384073781 -209.67295710068478 103.52584107589080 -84.743518384073795 -209.67295710068476 103.52584107589078 -175.16931446894918 2.8343499210567608e-06 -2.5429177634557185e-06 -1.0686757383864537e-05 -172.26319289641671 2.0899328295742592e-08 7.1215303654170725e-09 2.5597034374769123e-05 0.0010044703585349892 -1.7761943534485841e-11 9.5083532923378961e-12 2.9620591166598081e-11 0.0010033552208974733 -83.461357431600007 -208.36062644399999 109.02489266960001 1287.0831768928649 0.0000000000000000 0.0000000000000000 0.0000000000000000 0.0000000000000000 3.1697644506529161 3.3459776934127197 1.1762829856706443 1.0844482845501644 1250.9200353934086 1251.6983009840926 1.0845658443887751 
-42.269301804366599 -130.54997046489319 57.706212879797739 -42.269301804366599 -130.54997046489322 57.706212879797732 -150.77681595669029 9.0030646520294915e-06 5.9752376572191356e-06 -1.6264745676801907e-05 -152.50866112466045 1.1580570530300704e-08 2.7333865171286224e-09 3.7463957301753232e-05 0.00097311880485593963 -1.9573066788693003e-11 7.7574978072906980e-12 9.8433396571296347e-11 0.0010751450883808474 -41.558840772800004 -130.04627243999997 65.754654395919971 2180.9238908936368 0.0000000000000000 0.0000000000000000 0.0000000000000000 0.0000000000000000 3.1695825163602978 3.3455894294719646 1.1760761420721730 1.0844482845501631 1215.5999117453541 1215.8475037566420 1.0844704270318961 
-23.242458944707398 -134.99423280091077 47.277290193041921 -23.242458944707401 -134.99423280091079 47.277290193041914 -173.87639106589589 5.0648667166188308e-06 2.6079287522867611e-06 -6.3624636995757014e-06 -175.56413549937082 7.4061221322363480e-09 2.9798453704543700e-09 4.0164966161881914e-05 0.0010501290596037433 -4.5005232808359698e-12 9.2532479715830046e-12 1.9035217580141347e-11 0.0010415302650865271 -22.788097858800000 -134.44511465599999 55.905993737599999 935.86986824075086 0.0000000000000000 0.0000000000000000 0.0000000000000000 0.0000000000000000 3.1695146951578228 3.3454484019271331 1.1760028534025089 1.0844482845501628 1250.3021646106292 1249.9200838097252 1.0844366622776105 
-11.319650332118671 -103.83308950662176 53.845385376753249 -11.319650332118671 -103.83308950662173 53.845385376753249 -171.69495405160120 -4.0880420327060990e-06 -2.8266803269495303e-06 -2.2807620146331528e-05 -168.02481182559237 4.7902838917757151e-09 1.2516724323674564e-09 3.8463881223194101e-05 0.0010449109495613308 -5.9428721779867948e-13 -3.2344685668357940e-11 1.4376090927653441e-11 0.0010369598299564361 -11.025769398400001 -103.60243655599999 62.108642139439993 1284.9349949311236 0.0000000000000000 0.0000000000000000 0.0000000000000000 0.0000000000000000 3.1695265192973086 3.3454732750137151 1.1760159236011984 1.0844482845501635 1251.4901793347856 1251.8134029355772 1.0844426834844210 
-29.533290017545987 -141.37867521610224 62.277130198001650 -29.533290017545987 -141.37867521610224 62.277130198001650 -150.32976875128384 6.5475319218822886e-06 8.4510203300503730e-06 -1.7247713123293753e-05 -146.74221667858185 8.7863169240254280e-09 3.3339387917052932e-09 3.6280125703669348e-05 0.00096264801004421674 -2.0790692884375879e-11 7.6594546434813494e-12 8.6872194943577868e-11 0.0010818293979903482 -28.994254794799993 -140.76430841599998 70.071247290159988 2176.9829965296321 0.0000000000000000 0.0000000000000000 0.0000000000000000 0.0000000000000000 3.1696028132089071 3.3456326102957550 1.1760990734411856 1.0844482845501631 1207.8843703053192 1208.0856571644290 1.0844809883960809 
-104.96067511379081 -195.21853015733097 87.658511291210502 -104.96067511379080 -195.21853015733095 87.658511291210502 -180.85258768433548 -1.2532259736550760e-06 -2.8861687304453089e-07 -7.5203220160144267e-06 -188.07302291055831 2.5334935732646006e-08 6.3198862809699116e-09 2.9706547842067718e-05 0.0010279231134882342 3.4101055149785604e-12 -9.8824422288852909e-12 -4.0911157020475681e-13 0.0010174641342068746 -103.40639267600000 -194.05392295999994 94.040416199999996 2662.2783756828549 0.0000000000000000 0.0000000000000000 0.0000000000000000 0.0000000000000000 3.1696743427074172 3.3457920692093244 1.1761873728192576 1.0844482845501640 1265.0751530717484 1266.0773486192650 1.0845217689303310 
-83.777661411420368 -163.13812957946428 70.463249585719012 -83.777661411420411 -163.13812957946436 70.463249585719026 -182.73074696388488 -9.0089861610571838e-06 -1.0759067463711426e-05 -1.3434174068040244e-05 -180.58615203480025 2.0687424912013697e-08 4.5407110293993469e-09 3.4159985242254720e-05 0.0010390953825249222 2.9585753310414332e-11 4.1764790749329054e-11 1.1470303896828935e-10 0.0012410034128983180 -82.508500824799995 -162.30138233600007 77.801893530400037 2229.3857910936085 0.0000000000000000 0.0000000000000000 0.0000000000000000 0.0000000000000000 3.1697731996153053 3.3459895074417592 1.1762858874135886 1.0844482845501635 1267.7863536741495 1268.6992975263672 1.0845672050018109 
-28.516443770116357 -125.51429830342775 123.15236898572186 -28.516443770116350 -125.51429830342784 123.15236898572178 -76.289679192289654 -4.4965078559555941e-06 -1.1835566553178182e-06 2.2089485351659052e-05 -4.8478162298556621e-20 8.5632240465205472e-09 2.4540948162510294e-09 2.0513918169484668e-05 0.00067340060195133014 4.3691312454133273e-11 1.5448098302457889e-11 -5.0846797242831745e-11 6.1688707490051046e-21 -27.991095225219734 -125.06206457489009 127.55940664489751 1124.7619503421174 0.0000000000000000 0.0000000000000000 0.0000000000000000 0.0000000000000000 3.1694505093408778 3.3453076636498191 1.1759260963396982 1.0845248460559889 1070.2076448633993 1063.6617739224812 1.0844011866610186 