# For a description of the Tecplot format see the Tecplot User's guide.
#
Variables=x,y,z,s_u,s_v,s_w,s_p,mono_f_vel_u,mono_f_vel_v,mono_f_vel_w,const,u_nu,v_nu,w_nu,p_nu,x_nu,y_nu,z_nu,const,u_ref,v_ref,w_ref,vol_ref,x_ref,y_ref,z_ref,const,I1,I2,I3,J,p1,p2,p3
Zone f=fepoint, n=3174, e=16683, et=brick, c=black
-24.9675 -154.261 111.563 -24.967537003135821 -154.26081459079543 111.56342259150186 -7.9593208261616137 8.4764318280836169e-09 -2.0243016298825746e-05 2.3805977014632131e-05 13.722886311176895 2.7938712107711261e-10 1.9110188431703537e-10 2.0787229049190612e-07 -9.1333464350726528e-06 1.2285086262904406e-10 4.5500216325571691e-10 2.2720046385538682e-10 3.1340188488249580e-05 -24.903554063199991 -154.16086777200002 112.24023381839994 89.724962256112903 0.0000000000000000 0.0000000000000000 0.0000000000000000 0.0000000000000000 3.0216809741030768 3.0434662947236699 1.0217854279389535 1.0117413060830598 122.06338499516136 122.06356243226631 1.0108336470231396 
-37.536497487847456 -155.21719724244471 114.26457929448974 -37.536497487847448 -155.21719724244477 114.26457929448965 -9.2899156548129600 1.9224471407500083e-05 3.2713801146211156e-05 -5.9890070629449544e-06 0.0000000000000000 3.8938605835895859e-08 -1.3674698823587162e-09 2.4547568398110281e-07 8.6144485437214379e-06 -2.4321088575461165e-11 -9.5487530648294411e-11 1.2949865769146683e-10 0.0000000000000000 -37.438273663334591 -155.10473791080037 114.93291110338620 89.036758072416930 0.0000000000000000 0.0000000000000000 0.0000000000000000 0.0000000000000000 3.0304802979161427 3.0612401434638481 1.0307605725331050 1.0145069067237045 187.05914329602282 187.05918019982354 1.0152652871085950 
-31.618596158331119 -147.97040714081109 119.24177651281464 -31.618596158331119 -147.97040714081106 119.24177651281470 -10.319819164788557 -1.0978676578697090e-05 2.4721240692827193e-05 6.3994257317574479e-08 0.0000000000000000 3.3175819383335359e-10 1.7463661072802947e-10 1.9029307707363327e-07 -1.4412213309456113e-05 3.5512144384476326e-11 -1.3984379269131237e-10 -5.7132616117781051e-11 0.0000000000000000 -31.542619574254449 -147.87907313389167 119.86135157363466 98.260374494724786 0.0000000000000000 0.0000000000000000 0.0000000000000000 0.0000000000000000 3.0247989553941514 3.0497663667157298 1.0249677625689424 1.0126563425494834 168.12192981094822 168.12211262481830 1.0124055847990119 
-28.718402534534349 -143.05198129486482 111.44684068462264 -28.718402534534338 -143.05198129486473 111.44684068462264 -8.8065671990419929 -4.6333364394392466e-05 -1.3023221568156684e-07 3.1444026588985488e-05 0.0000000000000000 3.0892448668606848e-10 1.6174586670025806e-10 2.0813919654472102e-07 -3.6409467684038622e-05 2.2143088918026672e-10 -1.7280904941939917e-10 -1.3902829792795970e-10 0.0000000000000000 -28.647655777685479 -142.96738158566356 112.12452093910819 112.69127588814607 0.0000000000000000 0.0000000000000000 0.0000000000000000 0.0000000000000000 3.0262166216234192 3.0526050623979262 1.0263887418940820 1.0131446826962318 157.73590527658467 157.73546625615421 1.0131076528249425 
-24.324683899712394 -200.59554792451942 72.760489521568516 -24.324683899712394 -200.59554792451942 72.760489521568516 -496.38115191908946 -2.4475451855283992e-05 1.8918154094494876e-05 -2.0522857530286256e-05 -480.65948937639365 2.7432537144655988e-10 3.1241056963615671e-10 2.9670972945261553e-07 0.00013574945021532279 4.9125593260549005e-11 -6.1964671031267957e-11 4.0439055914867647e-11 0.00015658300296919280 -24.261860196399997 -200.43215969199997 73.726546483199982 142.71380061529433 0.0000000000000000 0.0000000000000000 0.0000000000000000 0.0000000000000000 3.0216087191175016 3.0433261873908006 1.0217176250712692 1.0107141671560282 969.09033453914503 969.09033427437214 1.0108006449940057 
-24.220032752015115 -187.78492566504246 74.355716449186275 -24.220032752015118 -187.78492566504246 74.355716449186275 -499.47616101994362 2.3705163661337521e-05 -2.1959251015188838e-06 1.0805616854113708e-05 -515.62492360580723 2.7350066308939880e-10 2.7887822606764701e-10 2.9305753046493516e-07 0.00011277673968194678 8.1817081354356907e-11 3.8622541029260698e-11 1.8825259037782745e-11 0.00012089492356488808 -24.157397762799999 -187.63907770800003 75.309882232799993 165.73632395326644 0.0000000000000000 0.0000000000000000 0.0000000000000000 0.0000000000000000 3.0214744749616611 3.0430529689564207 1.0215786329656280 1.0107141671560282 1013.6522037844209 1013.6522027342769 1.0107313602718018 
-34.967557933868562 -195.56783323251912 80.689728478344435 -34.967557933868562 -195.56783323251901 80.689728478344463 -471.61557951224728 5.3069188044378649e-05 -6.9056267703889541e-06 -3.5345125569335812e-07 0.0000000000000000 3.5813102136628134e-10 2.9924976385764523e-10 2.7855611750560172e-07 8.9959862632716839e-06 -1.9543425960976818e-10 2.4250277400719859e-10 2.6714399315498676e-10 0.0000000000000000 -34.885542273181727 -195.41132893576267 81.596679120775832 139.46796289390394 0.0000000000000000 0.0000000000000000 0.0000000000000000 0.0000000000000000 3.0206813639460122 3.0414605704329785 1.0207793442087050 1.0100601311477848 965.99446620008553 965.99446838124015 1.0103359415058504 
-18.875598501332764 -194.68499551900737 80.504624550024985 -18.875598501332771 -194.68499551900734 80.504624550024985 -498.17048880463358 -2.5603479185365122e-06 5.9046814186073030e-05 3.9813446337181041e-05 0.0000000000000000 2.3141906099755086e-10 2.9693345005021854e-10 2.7897990650949117e-07 0.00013379263385880690 1.4704082729540022e-11 -6.1274466850016179e-11 -4.7460695163445975e-11 0.0000000000000000 -18.822600960987238 -194.52970000168264 81.412954998504986 111.95285379220412 0.0000000000000000 0.0000000000000000 0.0000000000000000 0.0000000000000000 3.0216217687998372 3.0433506193138551 1.0217290042974907 1.0107141671560289 1024.3494327580704 1024.3494327222861 1.0108063484925045 
-22.723919169016604 -103.23799584095701 42.043654435477634 -22.723919169016600 -103.23799584095698 42.043654435477634 -261.54882651896105 -3.4429542937051084e-05 5.2433183311587912e-05 -5.1077117492453997e-05 -273.65646333250601 2.6172053066431116e-10 5.7526039487498792e-11 3.6703443817565073e-07 9.7529593864480779e-05 1.2664872006031460e-11 -3.1656052188129919e-11 3.9168292475553529e-11 0.00010548465414961717 -22.663982073999996 -103.20790935200000 43.238681550399988 69.202643319072678 0.0000000000000000 0.0000000000000000 0.0000000000000000 0.0000000000000000 3.0214094894656363 3.0429245429454324 1.0215152025135221 1.0107141671560298 592.08059523897316 592.83631303944878 1.0107003600361475 
-30.225124467147985 -110.81356588659776 45.821892710334289 -30.225124467147982 -110.81356588659776 45.821892710334289 -240.88625090022740 -4.6303695104965691e-06 5.2179670444259215e-05 -5.1138299141008680e-05 -223.71815180111631 3.2078763603782251e-10 7.7353151661796460e-11 3.5838434730983693e-07 9.3209092952813776e-05 1.9529394854608246e-11 -1.5290463577581492e-11 8.4319547012766508e-12 8.8471983663141935e-05 -30.151660686400003 -110.77310694400001 46.988755992800002 74.715282964229786 0.0000000000000000 0.0000000000000000 0.0000000000000000 0.0000000000000000 3.0214960969487201 3.0430982363355263 1.0216022892010737 1.0107141671560298 532.75316592676768 545.61903475727570 1.0107434570669207 
-18.787989872482250 -103.59762721543429 48.864234314953748 -18.787989872482253 -103.59762721543431 48.864234314953755 -228.39012330703076 -2.9655573517094902e-05 2.8982752797852309e-05 -4.9397274050727568e-05 -231.60492292975141 2.3072823859826566e-10 5.8474974862221529e-11 3.5141904852764583e-07 8.9056278800928642e-05 -3.7475069366425052e-12 -1.0215695579132446e-11 7.8063267919420824e-12 9.4499288559837230e-05 -18.735150314000002 -103.56704831999998 50.008419303199993 79.719497061372692 0.0000000000000000 0.0000000000000000 0.0000000000000000 0.0000000000000000 3.0214148857783525 3.0429351854405446 1.0215204483190654 1.0107141671560285 523.32779382218905 531.38206525207340 1.0107029394432756 
-25.556924996773741 -98.511203760143090 49.845366551286062 -25.556924996773738 -98.511203760143104 49.845366551286062 -234.26394867650271 3.8837131263364315e-06 3.2273011573111002e-06 -0.00010601208242879856 0.0000000000000000 2.8402739535304811e-10 4.5150327920850941e-11 3.4917279467805434e-07 8.0868268718257727e-05 -1.4073348419121534e-11 1.5623568891485632e-11 7.0355607704167453e-12 0.0000000000000000 -25.491879232152165 -98.487589184379729 50.982237960580505 72.292163684038698 0.0000000000000000 0.0000000000000000 0.0000000000000000 0.0000000000000000 3.0214571698971087 3.0430207715613822 1.0215637529358785 1.0107141671560282 543.11832416772438 519.94533482597024 1.0107243835162736 
-25.384199743935451 -104.24109662070182 108.05533307915518 -25.384199743935451 -104.24109662070181 108.05533307915525 -26.353439542926445 -1.0022245077995548e-05 8.1457407148391840e-05 -6.6430228801644419e-05 0.0000000000000000 6.6538423370567434e-08 -1.2664090062144925e-08 2.3979986251585873e-07 0.00027313080869258432 3.8322349539738388e-10 3.2605689235251517e-10 -7.1928435642133864e-10 0.0000000000000000 -25.283559732051039 -104.23282252886388 108.75695162467670 96.378087069502698 0.0000000000000000 0.0000000000000000 0.0000000000000000 0.0000000000000000 3.0285552523637818 3.0572777233838893 1.0287222625312038 1.0140434081857947 187.10051761765354 187.11101857915665 1.0142577463985776 
-26.012431752059996 -118.03319567247712 109.97129457110677 -26.012431752060014 -118.03319567247716 109.97129457110671 -1.4305658495921365 1.6485953978181887e-05 -5.2647400239671598e-05 -4.8820728146114418e-05 0.0000000000000000 4.7260338068718535e-08 -9.3605406026661064e-08 2.5338930066506192e-07 0.00010594315377031515 -1.5731203598364916e-10 -1.0913954811287857e-10 -3.2724095079081831e-10 0.0000000000000000 -25.913646985361510 -118.01095136745833 110.66456878241424 88.846747377876298 0.0000000000000000 0.0000000000000000 0.0000000000000000 0.0000000000000000 3.0357609183615315 3.0718269134766687 1.0360659853422449 1.0159008375801060 181.68638073898484 181.69514963945281 1.0178794665169091 
-36.411622650769360 -112.67227839092608 111.36712991822907 -36.411622650769360 -112.67227839092617 111.36712991822911 -64.410918273512848 -0.00024224022679711178 5.9783390086742391e-06 2.6767223556093788e-06 0.0000000000000000 6.0220421155647728e-08 -1.6519649761720066e-07 2.5638869787184659e-07 0.00027916281183453824 2.7217237320968342e-11 -7.3599461441423364e-10 -9.9492931088391241e-10 0.0000000000000000 -36.236867317722961 -112.72601430119678 112.03758904139967 95.996160021407249 0.0000000000000000 0.0000000000000000 0.0000000000000000 0.0000000000000000 3.0211801519157673 3.0424157728873569 1.0212350071855341 1.0112839532673557 247.24969079313092 247.24860774869015 1.0105530081745357 
-33.530433867028066 -105.06266683661509 104.92859804888012 -33.530433867028052 -105.06266683661502 104.92859804888016 -32.509258287371523 -0.00011013195004338940 6.7381438563615773e-05 0.00016366029419299756 0.0000000000000000 2.0379499816564799e-08 -1.0073484284569743e-07 2.6051785363315925e-07 0.00041338617148710871 -8.2354411117357424e-11 -5.0669029163655656e-10 6.1695752665505228e-10 0.0000000000000000 -33.380789828628046 -105.09637623893835 105.63342596379557 85.433794965156210 0.0000000000000000 0.0000000000000000 0.0000000000000000 0.0000000000000000 3.0298461601918558 3.0598613113750344 1.0300150476325809 1.0133347204985819 158.02502968065474 158.02214488905886 1.0148988745083498 
-112.44114364995248 -160.77234199161583 124.08076689006344 -112.44114364995245 -160.77234199161583 124.08076689006340 -80.128565129129996 -2.0926191794663394e-06 9.2332737734954438e-06 -1.2368140211608290e-05 -74.162919955622797 9.6816823655365702e-10 2.0814053258710885e-10 1.7921444639412698e-07 4.3967108644716298e-05 -8.1519377921406773e-13 -6.3829512279526477e-12 1.4666204289956863e-11 3.7451634596909287e-05 -112.21942232800005 -160.66347960400000 124.66427103520003 147.55923210393107 0.0000000000000000 0.0000000000000000 0.0000000000000000 0.0000000000000000 3.0217827608480516 3.0436827440995660 1.0219001634535003 1.0107141671560285 264.12850999573442 264.16588372947791 1.0108910161356917 
-99.731419750905502 -158.20002934229333 115.94065883775417 -99.731419750905431 -158.20002934229339 115.94065883775419 -79.874491135791558 -2.3499735123853964e-05 -1.0067855285748507e-05 -2.5495096617859887e-05 0.0000000000000000 8.6808840324414948e-10 2.0140383805156148e-10 1.9785082927548103e-07 5.1166797510216704e-05 9.3489114383010251e-11 -2.2714855037575752e-11 -6.5871908574510156e-12 0.0000000000000000 -99.532617471171264 -158.09468895943013 116.58484116745363 117.70414803503969 0.0000000000000000 0.0000000000000000 0.0000000000000000 0.0000000000000000 3.0209113557417013 3.0418830181070287 1.0209716727309006 1.0104964909658316 260.70194404931038 260.66496705990062 1.0104307989598913 
-104.55005412307874 -148.94765186081381 120.27992417507271 -104.55005412307871 -148.94765186081386 120.27992417507268 -73.353262320717334 -1.9546667212809679e-05 -4.5264042010604831e-06 3.6248313250780786e-05 0.0000000000000000 9.0602827670926978e-10 1.7719212208611168e-10 1.8791628764169843e-07 6.5364136347157285e-05 -8.0120854543766323e-12 -4.9198264934316065e-11 3.8096881458860123e-11 0.0000000000000000 -104.34256255272837 -148.85497981259945 120.89176065121424 119.29379793442074 0.0000000000000000 0.0000000000000000 0.0000000000000000 0.0000000000000000 3.0207779462468931 3.0416361402038494 1.0208582892034910 1.0106957277361293 254.21233059033517 254.21643499529245 1.0103750801245435 
-100.73101451205189 -162.39413766440350 123.98358688726297 -100.73101451205186 -162.39413766440342 123.98358688726293 -75.632792471155824 -6.8220643665050349e-06 -1.3235095342542456e-05 1.3058352898020157e-06 0.0000000000000000 8.7595760853154125e-10 2.1240412206857687e-10 1.7943692864896832e-07 3.9387853426821224e-05 8.6525469016352914e-12 7.8117072236524041e-12 -7.2187010559113058e-12 0.0000000000000000 -100.53040969477119 -162.28305471776312 124.56781543385799 141.51484144144280 0.0000000000000000 0.0000000000000000 0.0000000000000000 0.0000000000000000 3.0204714760382809 3.0410313482339104 1.0205599779534928 1.0103268970239323 246.66689308379702 246.62656294471327 1.0102274737170982 
-78.561154184520419 -148.89003114205462 88.600245032596078 -78.561154184520419 -148.89003114205460 88.600245032596064 -105.63154009230340 -7.0443171607262881e-05 3.0754023444328433e-05 -2.8461723303532365e-05 -106.86924996680993 7.0139455007889328e-10 1.7703519206158091e-10 2.6044538325997729e-07 -0.00013965090501771263 -4.4728358783303851e-10 -3.5265204600860548e-11 -1.5737613597538628e-10 -0.00022949400649425287 -78.400527573600002 -148.79743798799998 89.448228916799977 108.06316173413846 0.0000000000000000 0.0000000000000000 0.0000000000000000 0.0000000000000000 3.0222547855727706 3.0446156143801817 1.0223609699578513 1.0107141671560294 329.85806086645738 329.85808330281446 1.0111192887868286 
-80.313149216825209 -162.64607221086050 86.912444592528345 -80.313149216825209 -162.64607221086047 86.912444592528345 -129.26585666889130 -1.2368419746444709e-05 -2.6861927274032697e-05 -1.0668104761616425e-05 -124.38353830934676 7.1519453900825702e-10 2.1305868180832022e-10 2.6430950961220390e-07 -0.00013009501457875427 -2.0203886012831822e-10 1.4597385418919107e-10 -5.5334679398885152e-11 -0.00012611380351250080 -80.149363288800018 -162.53464431600008 87.773009718400019 109.57810873427631 0.0000000000000000 0.0000000000000000 0.0000000000000000 0.0000000000000000 3.0225662834087408 3.0452441782087543 1.0226780610257029 1.0107141671560300 348.72237712285704 348.72326595053528 1.0112761999704867 
-84.466754605770817 -160.29263895596483 94.166704977017446 -84.466754605770817 -160.29263895596486 94.166704977017460 -109.40640708588190 -2.2332897960026335e-05 1.3977736779818292e-06 -6.7480321116914266e-05 0.0000000000000000 7.4790046031281154e-10 2.0689913671212426e-10 2.4770124396056298e-07 -4.9350167334365928e-05 9.2772012446156269e-11 1.4522684689783631e-10 -1.8449682276165632e-10 0.0000000000000000 -84.295478612813938 -160.18443337667750 94.973195224810283 106.11323630727971 0.0000000000000000 0.0000000000000000 0.0000000000000000 0.0000000000000000 3.0194903782649916 3.0390884980210910 1.0195982840871851 1.0097264177023828 295.73453365288583 295.73392106566178 1.0097504345892760 
-86.649222250478488 -151.48629707155061 91.810430438618596 -86.649222250478488 -151.48629707155067 91.810430438618596 -127.81399091727339 -5.9796601993712815e-05 5.9263840758956819e-06 -9.2024251585064683e-05 0.0000000000000000 7.6508038446276860e-10 1.8384122002501613e-10 2.5309581253019076e-07 -9.2710685308770274e-05 3.3358058450007062e-10 1.1364398807097700e-10 -3.5505364754537990e-10 0.0000000000000000 -86.474010682800568 -151.39014911596544 92.634484883397832 94.367740677547317 0.0000000000000000 0.0000000000000000 0.0000000000000000 0.0000000000000000 3.0187042766496166 3.0374949830088274 1.0187908296240262 1.0095256060435187 339.17884710914137 339.17784847776687 1.0093516177176742 
-26.084653931480915 -132.50104850751876 138.16611574500399 -26.084653931480918 -132.50104850751879 138.16611574500396 -32.660389866604177 2.3542296650869941e-05 -4.6393134728687673e-05 0.00024647977968981626 -37.750168610046622 2.8818517364137541e-10 1.3413825605823601e-10 1.4696670813663104e-07 -4.0135281550863727e-05 -2.8460358067885460e-11 1.4193635890723382e-10 -8.1104372904308779e-10 -3.7284699888090643e-05 -26.018656529999991 -132.43089511199997 138.64462455200004 49.421240865332216 0.0000000000000000 0.0000000000000000 0.0000000000000000 0.0000000000000000 3.0209959792020977 3.0421029521311374 1.0211073507591133 1.0114795109957191 161.79599274348067 161.79600697779577 1.0104994643963967 
-32.573144805794129 -134.02905886389684 137.11661816349104 -32.573144805794115 -134.02905886389684 137.11661816349110 -30.494495459753374 -3.1289137425985439e-05 -1.4369896120707520e-06 2.7226967369297503e-05 7.2207347593921352 3.3927870582428632e-10 1.3814091537334150e-10 1.4936948300459105e-07 -4.6742398758657603e-07 1.9169375892721371e-10 1.7473914847117579e-10 -3.0967787255360218e-10 -0.00051616925658661700 -32.495446914399992 -133.95681332000001 137.60295016000006 48.530522504776933 0.0000000000000000 0.0000000000000000 0.0000000000000000 0.0000000000000000 3.0245510220144434 3.0492136426985890 1.0246622946273904 1.0123845905066347 188.67162689508680 188.67162010648011 1.0122535829575516 
-28.488536102398413 -136.51442561051306 139.84402324246670 -28.488536102398424 -136.51442561051311 139.84402324246668 -39.376173075578386 3.1667372215515429e-05 6.3683998729128106e-05 2.1312450370228380e-05 -51.007717664974493 3.0711247087089610e-10 1.4464007769277032e-10 1.4312522056414423e-07 3.5847639123317242e-05 -1.8066825926008995e-10 -1.8416520382125089e-10 -1.5344301158174930e-10 0.00015305399852059498 -28.418203856399998 -136.43877710800004 140.31002455199999 44.353383947079159 0.0000000000000000 0.0000000000000000 0.0000000000000000 0.0000000000000000 3.0210743745686988 3.0422434313790556 1.0211691702569838 1.0109390370859495 186.91828889925347 186.91829073120940 1.0105296483244111 
-26.835717261492189 -129.56787442471844 143.40890649358070 -26.835717261492174 -129.56787442471844 143.40890649358064 -66.106996860651009 9.6239368213836762e-06 3.4202905594678269e-05 5.4672974056423398e-06 0.0000000000000000 2.9409817983716557e-10 1.2645406943789794e-10 1.3496358963749344e-07 5.5594531537468686e-05 7.2643290727120083e-11 7.6335240921369029e-11 1.2236549491204884e-10 0.0000000000000000 -26.768365491316434 -129.50173712462359 143.84833436668455 49.139845408488213 0.0000000000000000 0.0000000000000000 0.0000000000000000 0.0000000000000000 3.0230151354923738 3.0461597542547527 1.0231447177247144 1.0112873145259305 282.25905184655949 282.25905230136954 1.0115055584290393 
-40.160141206701638 -65.454424302925972 153.58984415948069 -40.160141206701624 -65.454424302925972 153.58984415948072 -114.60119855101483 7.4303990038982189e-05 -1.2574695515316343e-06 -0.00010343938091181280 -78.830789239839319 3.9901596957103713e-10 -4.1384909388320075e-11 1.1165482804997851e-07 8.0988550809987157e-05 -5.8499496123725642e-11 -2.4314890947164566e-11 1.1995013755157394e-10 -7.2375792597438674e-05 -40.068761925200000 -65.476070995999990 153.95338104800004 156.95717166164070 0.0000000000000000 0.0000000000000000 0.0000000000000000 0.0000000000000000 3.0259700693431877 3.0520968485247217 1.0261269641666764 1.0111115665466488 316.46450328051731 316.46466577145208 1.0129828584763236 
-52.540462227551380 -59.626149515262398 148.86505799552538 -52.540462227551380 -59.626149515262377 148.86505799552538 -126.26477128646795 7.6139259886946745e-05 6.6440401912600092e-05 -0.00023234350983909613 -90.790940555942285 4.9649997654888089e-10 -5.6650850677186788e-11 1.2247201741644179e-07 0.00027934631021163658 3.4642860285985173e-10 6.9474397101760845e-12 -5.3986339326798270e-11 0.00043879667852578062 -52.426757905599978 -59.655776269200025 149.26381449600007 118.05125250056595 0.0000000000000000 0.0000000000000000 0.0000000000000000 0.0000000000000000 3.0236005605463814 3.0473323696624610 1.0237319716413114 1.0109664207007101 347.63831333862674 347.63622639405548 1.0117959437480217 
-35.255452073462735 -66.008882637643467 144.56880940642205 -35.255452073462727 -66.008882637643438 144.56880940642208 -183.69781845724492 -1.6951618244022973e-05 3.2815048549475594e-05 -0.00012362790574588052 -200.24339893241702 3.6039980375046632e-10 -3.9942715801544182e-11 1.3230805895325659e-07 0.00013366333914731048 1.5389840784745848e-10 -2.1542141771510537e-10 4.1058584710752517e-10 2.0062811648764361e-05 -35.172917262399999 -66.029770167599992 144.99959110400002 155.12084301790807 0.0000000000000000 0.0000000000000000 0.0000000000000000 0.0000000000000000 3.0188108202397288 3.0377160475429217 1.0189053285617009 1.0099101200448326 497.11668763655513 497.11671619002942 1.0094057748836607 
-50.522894350519458 -66.570008951373694 141.75168945911668 -50.522894350519444 -66.570008951373680 141.75168945911670 -187.45727231300896 4.4843167090347117e-05 0.00016642038001521973 -0.00033256528929729261 0.0000000000000000 4.8061546062405657e-10 -3.8467895535632130e-11 1.3875772975069364e-07 0.00014310779264296720 -3.4256230822645948e-10 -8.8795352334094694e-11 -5.6145060422688977e-10 0.0000000000000000 -50.412828244765279 -66.590128188430739 142.20347059834828 136.07757377940416 0.0000000000000000 0.0000000000000000 0.0000000000000000 0.0000000000000000 3.0122687250481857 3.0244789312828941 1.0122100878369027 1.0079331869515025 434.24099233069938 434.23995792368640 1.0060870006977114 
-94.749537449301855 -158.82294442881286 76.690101899216273 -94.749537449301883 -158.82294442881286 76.690101899216288 -209.56348138713381 -5.4105714494250404e-05 1.6804143696392547e-05 -5.1608637223764828e-05 -213.88029686300385 8.2886402949511329e-10 2.0304224968015205e-10 2.8771307580832689e-07 2.1706564782958403e-05 1.2607973613021081e-10 -2.4730818333552874e-10 2.9234917225234599e-11 -3.6134031461534831e-05 -94.559718839999974 -158.71675115199997 77.626866652000004 109.98746742214213 0.0000000000000000 0.0000000000000000 0.0000000000000000 0.0000000000000000 3.0213613821443563 3.0428278604297221 1.0214666281718467 1.0107141671560285 502.89217701370939 502.89213620642687 1.0106763529697491 
-89.863146611599262 -158.57225522971959 81.537724315245839 -89.863146611599248 -158.57225522971959 81.537724315245868 -160.68820991981235 -9.0602056466910043e-05 0.00010073023888939333 -4.1194356514727834e-05 -138.67088564194233 7.9038644726359141e-10 2.0239110387620943e-10 2.7661467205675200e-07 -2.9720973608184698e-05 9.7315754347931719e-11 -2.2268597664328178e-10 3.2080666866245940e-11 -5.2895556009864512e-06 -89.682139475999989 -158.46640519600001 82.438353807199988 112.88451412247700 0.0000000000000000 0.0000000000000000 0.0000000000000000 0.0000000000000000 3.0214362055206294 3.0429746794464969 1.0215386176635826 1.0107141671560271 393.39583592074018 393.39600520138276 1.0107116478026568 
-102.91440865845014 -155.04505924950209 85.739678835929737 -102.91440865845014 -155.04505924950209 85.739678835929695 -201.08713933612162 -1.1122692211714273e-05 4.5563373986112536e-05 -4.0059869393554812e-05 0.0000000000000000 8.9315768322939536e-10 1.9315285482157662e-10 2.6699450916822803e-07 4.6545011625533970e-06 1.7276977057591740e-11 9.4661574166581577e-11 5.8037193101156201e-10 0.0000000000000000 -102.70986659571734 -154.94403864466588 86.608986019839278 111.02505284862640 0.0000000000000000 0.0000000000000000 0.0000000000000000 0.0000000000000000 3.0214222033907840 3.0429475280692633 1.0215254531015503 1.0102621270190471 498.94732395962404 498.94740178488968 1.0107054947360441 
-100.60744666811969 -167.29170195967154 82.778696136160448 -100.60744666811975 -167.29170195967160 82.778696136160448 -163.37654713097751 -5.4694665729032605e-05 4.7682461024640618e-05 -9.8606533392872308e-05 0.0000000000000000 8.7499224185605406e-10 2.2522220199938658e-10 2.7377353961632883e-07 1.1416137835216323e-05 6.6039477622401519e-11 5.2104359415147424e-11 -1.4063754824991290e-10 0.0000000000000000 -100.40706467681501 -167.17391327890167 83.670075146830683 105.53983917324770 0.0000000000000000 0.0000000000000000 0.0000000000000000 0.0000000000000000 3.0216077837178070 3.0433255091533531 1.0217178860357732 1.0105546912451797 387.98660403034779 387.98681627116474 1.0108005113963934 
-114.85012761036525 -99.831273440230433 95.777782953082436 -114.85012761036525 -99.831273440230447 95.777782953082436 -122.72134513260107 -4.2052537810321513e-07 -9.3820355653583003e-06 2.1598434047285261e-05 -117.60292639422185 9.8714150395529110e-10 4.8602455393620403e-11 2.4401275600105521e-07 6.5130554527037348e-05 2.0742672753501899e-11 1.6098219240480543e-11 1.3399982244955143e-10 8.7369615928220451e-05 -114.62406224400000 -99.805851428000011 96.572263865600007 85.211636250682801 0.0000000000000000 0.0000000000000000 0.0000000000000000 0.0000000000000000 3.0217103565578896 3.0435250072221147 1.0218147911392632 1.0104311245995008 335.08622429505300 335.08618692592881 1.0108483464817632 
-111.30723870310578 -91.111124377147235 99.454192377733079 -111.30723870310577 -91.111124377147235 99.454192377733079 -124.98686893420418 1.2357213685112470e-05 1.2192717893906166e-05 4.3853758750596629e-05 -136.31567265247401 9.5924695617255473e-10 2.5775159784302559e-11 2.3559579731546876e-07 -3.2137824392645804e-05 1.7626431853408888e-10 2.7429009218150785e-10 5.0595014308183963e-10 -0.00024156559647108984 -111.08756211600000 -91.097641973600034 100.22126851279998 99.535403830130534 0.0000000000000000 0.0000000000000000 0.0000000000000000 0.0000000000000000 3.0218400656505913 3.0437791859694294 1.0219392494080961 1.0106659194306169 356.93549627950176 356.93538803821508 1.0109098731086799 
-113.12730671004788 -97.678279025070495 107.68106008898262 -113.12730671004785 -97.678279025070481 107.68106008898259 -112.82946693505509 1.0858673374797357e-05 4.6216493848535931e-05 -3.3026456011338721e-05 -135.22034753488310 9.7356955483518526e-10 4.2969017233218658e-11 2.1676077843757469e-07 9.4584694201712622e-05 7.0893263600050617e-12 1.1311651998704748e-10 -1.7828053245558989e-10 0.00011779070862888537 -112.90434805199999 -97.655804887999992 108.38681131359999 128.09762094244454 0.0000000000000000 0.0000000000000000 0.0000000000000000 0.0000000000000000 3.0213714755976757 3.0428522584330646 1.0214809594990282 1.0108488794855377 352.90302855421402 352.90283955333592 1.0106835917580115 
-107.36723800843116 -103.87215608698808 99.785558955374981 -107.36723800843116 -103.87215608698808 99.785558955374981 -122.81161310608807 -1.8992110248767059e-05 -2.2912333067673319e-05 2.2682506151109809e-05 0.0000000000000000 9.2821938676990169e-10 5.9186655576581870e-11 2.3483713840199980e-07 0.00010396118738125342 -1.5471560320407819e-10 1.5550555192272668e-10 -1.4285056202605666e-10 0.0000000000000000 -107.15466629968294 -103.84120130723400 100.55016500991876 102.24201981555134 0.0000000000000000 0.0000000000000000 0.0000000000000000 0.0000000000000000 3.0197400484995760 3.0395594231136345 1.0198194516239314 1.0101036590706807 323.14957246726334 323.14956812960253 1.0098606076543932 
-26.981776304671108 -115.39674299260206 102.61966202106966 -26.981776304671119 -115.39674299260199 102.61966202106973 -7.9804822711666894 4.5753813166751830e-05 -2.4689358512838384e-05 -3.1817977043257535e-05 0.0000000000000000 3.5162272044096980e-08 -8.1262775965332661e-08 2.9531514244161210e-07 0.00020244262977186196 -9.2759572301242839e-11 2.6711372461792109e-11 7.7611112075109638e-10 0.0000000000000000 -26.889884864405381 -115.37486796036181 103.37575244326078 96.382960025775517 0.0000000000000000 0.0000000000000000 0.0000000000000000 0.0000000000000000 3.0336859585422791 3.0676356804241762 1.0339496589178117 1.0155622377616347 182.71832426981504 182.71335367793256 1.0168334072528031 
-109.78526623039116 -103.65242729157654 151.82072561045590 -109.78526623039119 -103.65242729157650 151.82072561045590 -46.211280578890744 -9.6127264955402727e-06 -1.8878932178868436e-05 -2.1960552584863453e-05 -47.812173209278292 9.4725341112655848e-10 5.8619109566393490e-11 1.1570515812131532e-07 2.1420978239130618e-05 6.5843832375402141e-12 2.6172323269835523e-11 3.3073296233016205e-12 1.3047365978180542e-05 -109.56833416800004 -103.62177336400003 152.19744990400002 70.302883591683823 0.0000000000000000 0.0000000000000000 0.0000000000000000 0.0000000000000000 3.0200449452887330 3.0401758317362004 1.0201309983871414 1.0107033921937478 197.77573456295539 197.72137097145483 1.0100155279083753 