# For a description of the Tecplot format see the Tecplot User's guide.
#
Variables=x,y,z,s_u,s_v,s_w,s_p,mono_f_vel_u,mono_f_vel_v,mono_f_vel_w,const,u_nu,v_nu,w_nu,p_nu,x_nu,y_nu,z_nu,const,u_ref,v_ref,w_ref,vol_ref,x_ref,y_ref,z_ref,const,I1,I2,I3,J,p1,p2,p3
Zone f=fepoint, n=1339, e=6475, et=brick, c=black
-59.9089 -70.3270 174.311 -59.908854217965775 -70.327039590637327 174.31137970261076 90.901796457062716 1.9561425584825045e-06 3.3086950146186789e-06 -4.2780409977910211e-06 87.769233902938481 -2.3381782621179070e-10 6.9557692938815299e-12 -4.6777891959948187e-07 -0.0025843282123316001 -2.0691603503609800e-11 2.5708837732613368e-11 -4.6258456249135424e-11 -0.0025937445104316291 -58.668039002000000 -70.473359259200009 176.35421013599998 215.13583165143561 0.0000000000000000 0.0000000000000000 0.0000000000000000 0.0000000000000000 3.2263371826837739 3.4639705969144354 1.2377932251248323 1.1127871800671851 676.06290902494209 675.62364468366025 1.1125618355117630 
-66.316843794071531 -76.348929941636058 182.58422449532804 -66.316843794071502 -76.348929941636044 182.58422449532810 97.216311890650502 -1.5575620926448295e-05 5.5699165851398605e-06 -9.3056412472599135e-06 95.826874386332051 -2.5508947731900378e-10 3.1283864387887661e-12 -3.2980467956633669e-07 -0.0025396084817060536 -4.4192318069603150e-11 4.0209338778510386e-11 -5.8144220646161983e-11 -0.0025463433076258870 -64.963123215600007 -76.414687385200040 184.02450960799996 253.42820447565578 0.0000000000000000 0.0000000000000000 0.0000000000000000 0.0000000000000000 3.2261697473165523 3.4636068213193245 1.2375960185745449 1.1127871800671836 661.69253195768465 661.76011870302875 1.1124730763133626 
-71.101618366166491 -71.452888431666850 175.26316423795947 -71.101618366166477 -71.452888431666864 175.26316423795947 90.075869685658560 -2.0958184351668329e-07 2.5680738469349556e-06 -4.6519894799993932e-06 88.078596424813313 -2.7097077359705679e-10 6.2425620228623302e-12 -4.5190509112558170e-07 -0.0026056986761044706 -2.0334494226923303e-11 2.3606703231035810e-11 -5.2399437815521223e-11 -0.0026080101736043679 -69.663592608799988 -71.584146237200002 177.23667228800005 218.29881668600640 0.0000000000000000 0.0000000000000000 0.0000000000000000 0.0000000000000000 3.2261700474722068 3.4635956010408719 1.2375841679889119 1.1127871800671829 675.05294495156329 674.96946780866722 1.1124678311874521 
-58.378862865631390 -87.814404619978049 169.26010304649822 -58.378862865631390 -87.814404619978063 169.26010304649836 95.125445317141242 1.2335163977429118e-06 3.9512445081106780e-06 2.5248476810431759e-07 0.0000000000000000 -2.2873411498203216e-10 -4.1657788329985132e-12 -5.5202397497566835e-07 -0.0025879591886219396 4.9659752604845699e-12 3.5334057910796990e-11 -6.6368228281391888e-11 0.0000000000000000 -57.165005282198301 -87.726774323660578 171.67083873969227 259.76550921814646 0.0000000000000000 0.0000000000000000 0.0000000000000000 0.0000000000000000 3.2286075538229824 3.4688071399050142 1.2403670945893588 1.1136530967148630 676.40997783645810 676.29889726489762 1.1137172038266270 
-90.681355018116889 -83.406583841212935 110.41635207865527 -90.681355018116861 -83.406583841212964 110.41635207865524 122.96601837651146 1.8125715115970001e-05 -6.2458137958170361e-07 -7.2038516904685444e-06 0.0000000000000000 -3.3597943871477298e-10 -1.3564704914870163e-12 -1.5334182563719880e-06 -0.0032876391671377877 1.6805379457721440e-10 -9.1200534962852984e-11 -1.7804733217152723e-10 0.0000000000000000 -88.898344731952406 -83.377922378373768 117.11292023788836 283.91631954144174 0.0000000000000000 0.0000000000000000 0.0000000000000000 0.0000000000000000 3.2334227191359863 3.4795294783997979 1.2463024922615811 1.1157805444418525 630.68636680046802 630.68630108653042 1.1163758084177433 
-99.534694193867878 -66.706950586420035 100.82500605595935 -99.534694193867850 -66.706950586420035 100.82500605595934 109.88173570581526 9.3817875036971545e-06 1.7500522210457533e-05 -4.7550109047667093e-05 102.97885770888760 -3.6537414760395853e-10 9.2508223303866544e-12 -1.6933824404929965e-06 -0.0034386240541233611 4.9060782500993114e-13 4.2895594259318496e-11 -2.9329014329481814e-10 -0.0034505361300397703 -97.595692787999965 -66.901700632800015 108.22015140479995 322.25788568967050 0.0000000000000000 0.0000000000000000 0.0000000000000000 0.0000000000000000 3.2244304706715075 3.4597874120602436 1.2355073841898288 1.1127871800671851 634.08973899164278 634.08973521794553 1.1115369950883278 
-81.279894402071832 -67.345239295945561 101.25138434575308 -81.279894402071875 -67.345239295945547 101.25138434575314 99.876867267530997 -5.0496851431491548e-07 1.1997025800053317e-05 -1.5361313844794677e-05 0.0000000000000000 -3.0477462220623863e-10 8.8549167998053235e-12 -1.6862713110299410e-06 -0.0034661384995559839 3.0191409772527064e-11 -4.8466157738211282e-11 -2.7277154580374450e-10 0.0000000000000000 -79.662532843379708 -67.531450170133141 108.61547480962874 295.38956150422752 0.0000000000000000 0.0000000000000000 0.0000000000000000 0.0000000000000000 3.2285195637625459 3.4687089319739317 1.2403587678276791 1.1137580176913182 665.70537705886045 665.70530144757879 1.1137132929690121 
-96.360868164065252 -81.847304617829579 101.26306877786021 -96.360868164065295 -81.847304617829593 101.26306877786016 118.75692546468917 1.9119162010312848e-06 1.9784356430643110e-05 -2.7595737001092576e-05 0.0000000000000000 -3.5483746496645097e-10 -3.7769787297747820e-13 -1.6860764375792316e-06 -0.0034556617464329854 3.8243068973214104e-11 6.4452232895889010e-12 -2.3801837653912485e-10 0.0000000000000000 -94.477787882002133 -81.839503548705352 108.62630821647583 293.80807890400462 0.0000000000000000 0.0000000000000000 0.0000000000000000 0.0000000000000000 3.2303300948676972 3.4726103915447202 1.2424561433363019 1.1143768211779483 626.61530352847103 626.61527430777596 1.1146532227646870 
-48.258171853140169 -126.61067600346112 133.61238329015660 -48.258171853140155 -126.61067600346121 133.61238329015666 57.930659478954830 1.3941980023977763e-05 -9.7821563583646278e-06 -1.4337679835071549e-05 0.0000000000000000 -8.8769302132454234e-07 2.1714510198625472e-07 -4.6645244922394057e-06 -0.0029795812568512506 -5.6641491150744618e-11 1.0174641691798453e-12 -2.7670200415058454e-10 0.0000000000000000 -47.292355390977058 -125.96433165720771 138.67232254046354 244.31333887135355 0.0000000000000000 0.0000000000000000 0.0000000000000000 0.0000000000000000 3.2187123085030018 3.4467531337656965 1.2281513240209272 1.1084392417984381 705.19733205746536 705.19766837216559 1.1082197846924293 
-34.976795224186297 -141.23014409408017 134.23786917672570 -34.976795224186283 -141.23014409408009 134.23786917672575 58.427452018780890 -3.1664907719403656e-06 9.7547997550955938e-06 -2.8387487267651718e-06 0.0000000000000000 -4.1602576646076236e-07 -2.7841427220586092e-08 -2.3085515197569245e-06 -0.0027440942315605349 1.7551604509581287e-11 -5.5134085580836126e-11 -2.4607072621626423e-10 0.0000000000000000 -34.196989160350306 -140.43319657724166 139.21506628885933 210.16870282748488 0.0000000000000000 0.0000000000000000 0.0000000000000000 0.0000000000000000 3.2204954846768792 3.4510332485543196 1.2306673590579571 1.1094924399988175 706.78052050578106 706.78070000279092 1.1093550956680707 
-31.691877020652186 -128.26999037549061 138.04433435624128 -31.691877020652200 -128.26999037549064 138.04433435624117 56.996516547542925 -8.9445969710224216e-07 -6.2092437809104890e-06 3.9779089313433405e-06 0.0000000000000000 -1.4013121218958704e-10 -2.9887425867514139e-11 -1.0726396162397123e-06 -0.0026401913533362830 -1.4673954934996031e-10 -8.7009938232138415e-12 -1.2776831076302023e-10 0.0000000000000000 -30.948229910445860 -127.64113600963313 142.72864290474456 229.21992526850030 0.0000000000000000 0.0000000000000000 0.0000000000000000 0.0000000000000000 3.2197944858126415 3.4495370782067987 1.2298680869168599 1.1094534652270087 710.69184813100549 710.69128189519051 1.1089916472347128 
-49.394822537705913 -131.61022193045392 142.45389831265089 -49.394822537705906 -131.61022193045392 142.45389831265086 61.576208465057647 6.0772948853707999e-06 -4.1358446610953219e-07 8.7113659957977415e-07 0.0000000000000000 -8.5499391463251870e-07 3.6043841500808566e-07 -4.0014788346568900e-06 -0.0026950189372071708 -1.9075184421617841e-11 2.1352926333874916e-10 -4.2868183004718651e-10 0.0000000000000000 -48.406431667502837 -130.90513559487593 146.85896726379221 225.63426853136377 0.0000000000000000 0.0000000000000000 0.0000000000000000 0.0000000000000000 3.2188981837366843 3.4473434219974024 1.2285619569013884 1.1088517947649641 698.80199898168200 698.80366517401171 1.1084053880863454 
-54.129027629536530 -84.975033432602615 67.939299109926353 -54.129027629536509 -84.975033432602629 67.939299109926367 113.76805873368728 9.1082916712591324e-06 4.3035653603911015e-05 6.7193412941216871e-05 0.0000000000000000 -1.5263675884624202e-07 -2.5719347300712125e-06 -3.2643660684123147e-06 -0.0053635945558721081 -1.0617282068311944e-09 -7.6099425684932065e-09 1.4151393380065490e-09 0.0000000000000000 -53.009977022357148 -84.940192361847963 77.707205907375524 356.07450292316213 0.0000000000000000 0.0000000000000000 0.0000000000000000 0.0000000000000000 3.2349392417466882 3.4822993074112665 1.2475473724076489 1.1156092664282846 654.61495086879029 654.70590654291857 1.1169335638351336 
-41.200722912493262 -85.702853703984459 56.879831311974009 -41.200722912493255 -85.702853703984459 56.879831311973987 83.337647036520465 2.2089743496296557e-05 5.7115744375249055e-06 -2.8042737741337272e-05 0.0000000000000000 3.6936501759475584e-07 -2.2903331815225647e-07 -2.2820271344304353e-06 -0.0045805830997260408 1.3706208273442308e-10 -2.0646334335455419e-10 8.1363664513723996e-10 0.0000000000000000 -40.313282635619565 -85.652866469445740 67.489144002613742 334.72004880612383 0.0000000000000000 0.0000000000000000 0.0000000000000000 0.0000000000000000 3.2267018825295208 3.4645858120820212 1.2380406158611164 1.1129586875712378 690.61615086683958 690.41516511248471 1.1126683823841850 
-43.856165159491582 -94.280920977671812 73.945355396014449 -43.856165159491610 -94.280920977671798 73.945355396014477 105.29565791835290 2.2041762794672429e-05 -5.6864212201975643e-06 1.2592300196480468e-05 0.0000000000000000 -5.0792493240160115e-07 -5.6937963461839644e-07 -4.4896373631567759e-06 -0.0051317030973888240 -2.2881306410043925e-09 -6.0950377677508715e-11 -3.3851933000394542e-09 0.0000000000000000 -42.930125987095458 -94.071309017270835 83.274511392489799 283.94561953274422 0.0000000000000000 0.0000000000000000 0.0000000000000000 0.0000000000000000 3.2363334765356617 3.4853914658500855 1.2492532602110176 1.1154001330881629 659.96595767252245 659.99636511089511 1.1177035806565057 
-45.941045168325864 -99.209797593611924 57.462116831584275 -45.941045168325878 -99.209797593611867 57.462116831584304 116.06286548689944 0.00011138080902817520 -2.2591211918728027e-05 -5.5714386605337278e-05 0.0000000000000000 -1.8744292229477821e-10 -1.1406431354998857e-11 -2.4165873870884980e-06 -0.0050085303357472041 8.9638212934610942e-10 -2.1270141770595198e-09 3.2559102267428892e-09 0.0000000000000000 -44.946335306532468 -98.969717126470769 68.015559797458934 339.42980011114588 0.0000000000000000 0.0000000000000000 0.0000000000000000 0.0000000000000000 3.2341015826358257 3.4805284539733305 1.2466118893038882 1.1151128604525209 610.70668472276714 610.30125553037362 1.1165165372096721 
-36.468637670456246 -101.11536012366453 65.382359965521474 -36.468637670456246 -101.11536012366454 65.382359965521516 81.608077957123271 3.7029072371395959e-05 -6.5406165419320741e-07 -9.7911848811611430e-06 0.0000000000000000 -5.1055435432376918e-07 -9.7180790047457189e-09 -2.8860035639637654e-06 -0.0050400543437205255 -1.6350941527366566e-09 4.2553451572335955e-10 -3.5450108558117735e-10 0.0000000000000000 -35.672109309640206 -100.83293553867907 75.360366609178811 338.44965823895870 0.0000000000000000 0.0000000000000000 0.0000000000000000 0.0000000000000000 3.2264191669030571 3.4639420304957431 1.2376763294279483 1.1133929646699430 697.22778699745697 697.27657935665422 1.1125075233697610 
-50.042773183851331 -112.40873566840246 54.622908791425530 -50.042773183851331 -112.40873566840243 54.622908791425523 103.98299972312510 7.8469537884815217e-05 -3.8084606959896633e-05 -4.1678084050492525e-06 132.60137436445828 -2.0106080689252792e-10 -1.9799273331955192e-11 -2.4639396123404822e-06 -0.0052065864550580937 -7.5199150668503752e-10 -8.9305595219442638e-10 1.3040428270340792e-09 -0.0060172918695535534 -48.975793059600008 -111.99207679200002 65.383142959360015 326.57209562220959 0.0000000000000000 0.0000000000000000 0.0000000000000000 0.0000000000000000 3.2253847615153002 3.4618580376341703 1.2366269467242021 1.1134827916159078 636.90950914383916 636.71758084164071 1.1120376920870341 
-25.880795813036734 -110.87805238630214 56.873329599502235 -25.880795813036713 -110.87805238630209 56.873329599502263 47.686674408570532 1.2385523125065577e-05 -1.0112866011584151e-05 -1.5949202727850955e-05 0.0000000000000000 -1.2083820055686092e-10 -1.8825829783963854e-11 -2.4264071640800471e-06 -0.0046384354362046598 -1.4387857850021741e-10 2.1294775554376098e-10 3.1002319588145440e-12 0.0000000000000000 -25.239536857883341 -110.48187134057846 67.469656361758609 349.35568362690350 0.0000000000000000 0.0000000000000000 0.0000000000000000 0.0000000000000000 3.2255677362029629 3.4623921564267905 1.2369842708174892 1.1125254847101052 750.11269739740692 750.16076065408470 1.1121985807628798 
-45.054950086273990 -111.67545038284968 66.561720645551432 -45.054950086273969 -111.67545038284969 66.561720645551475 89.640280120304084 2.6913261904065436e-05 -4.0427237554248283e-05 -1.3437656974468686e-05 0.0000000000000000 -1.8449650140972551e-10 -1.9334311929242176e-11 -2.2648244701883868e-06 -0.0051195430095442845 -5.6267527367929842e-10 7.8212448246510388e-10 -2.3177889033707293e-09 0.0000000000000000 -44.075852747763513 -111.26860156453857 76.452402029906395 268.59635586333832 0.0000000000000000 0.0000000000000000 0.0000000000000000 0.0000000000000000 3.2295343538815575 3.4707067833186507 1.2413351830522565 1.1151606861211871 682.43910151955549 682.44981283585332 1.1141481034792298 
-59.412964068361511 -107.06120076374610 97.721917226647648 -59.412964068361532 -107.06120076374603 97.721917226647705 54.932782757924208 -7.7522731773841708e-06 -4.1343375837536047e-05 -3.5390071926027259e-06 0.0000000000000000 -2.3182151117053211e-07 -1.1930290059196412e-06 -5.3889448279143071e-06 -0.0040413297865045609 2.7379662635404383e-10 3.7780939034545242e-10 -1.0466332810881754e-09 0.0000000000000000 -58.254647241440821 -106.62760994408018 105.33920711112118 241.62621693813244 0.0000000000000000 0.0000000000000000 0.0000000000000000 0.0000000000000000 3.2160843111859050 3.4420769878863764 1.2261190520731262 1.1079922051071311 703.29008609796085 703.28924354475998 1.1073024781932652 
-65.681653353429141 -90.256918697286096 88.400814418729908 -65.681653353429127 -90.256918697286039 88.400814418729865 95.163653958691071 1.4330297722321175e-05 -3.8144075290929686e-05 3.0348189374007399e-06 0.0000000000000000 2.8317857862703155e-07 -7.4800890142807592e-07 -4.3681395300157554e-06 -0.0040348618052929606 -1.2009074808810225e-10 -4.5955777750126966e-10 1.7079559454954777e-09 0.0000000000000000 -64.370648572599308 -90.090304358695661 96.688480747766732 239.98138923263960 0.0000000000000000 0.0000000000000000 0.0000000000000000 0.0000000000000000 3.2294057831709737 3.4708114261420353 1.2415845953862428 1.1141633315026784 673.54112775097883 673.54321162708595 1.1142641309907650 
-77.400512555667675 -99.997137918732136 93.392045060816073 -77.400512555667731 -99.997137918732165 93.392045060816116 87.151343109662548 3.2234249394051245e-05 -3.2180643552517199e-05 4.6376468196741211e-07 0.0000000000000000 2.5047106255279110e-07 -9.6696961602429578e-07 -4.3134526282009933e-06 -0.0041198438520766607 -2.0240661505730172e-10 2.6343320218614698e-10 -1.0260380855367897e-09 0.0000000000000000 -75.913673002404863 -99.702254402691466 101.32606574872912 288.13617662859207 0.0000000000000000 0.0000000000000000 0.0000000000000000 0.0000000000000000 3.2263478838930544 3.4643850737714668 1.2382053706047080 1.1128226597602382 677.03886444066313 677.03795823849543 1.1127447998994557 
-56.292956225357869 -93.832326001072119 95.555372890964307 -56.292956225357862 -93.832326001072090 95.555372890964307 85.164616249406265 3.7913326760730138e-06 -7.1113705356056723e-06 8.7145380404986797e-06 0.0000000000000000 8.3778782925216436e-09 -6.8628893207697060e-07 -5.2047778818517749e-06 -0.0040119459474015733 -6.0855020273165920e-11 -1.8833803013684504e-10 -4.8222113720015051e-10 0.0000000000000000 -55.164710769962618 -93.586508083202432 103.32606452766413 222.68531933077850 0.0000000000000000 0.0000000000000000 0.0000000000000000 0.0000000000000000 3.2264632935022211 3.4647974104707657 1.2385132130888261 1.1127209850241042 679.99358095008165 679.99427694716769 1.1128874091163850 
-46.772130973157033 -177.17897522343816 151.97982568881889 -46.772130973157040 -177.17897522343813 151.97982568881889 66.905750143409676 7.2032966197022774e-06 2.3277751631624058e-05 -2.7838933597632196e-05 0.0000000000000000 -1.9019905095341016e-10 -6.0987437322523874e-11 -8.4022389579274659e-07 -0.0025697284220277125 6.5325957235271189e-11 1.8330311030927389e-10 -1.5710762497709545e-10 0.0000000000000000 -45.762777822239421 -175.89580528354742 155.64915507299250 248.91339099022119 0.0000000000000000 0.0000000000000000 0.0000000000000000 0.0000000000000000 3.2221498053726902 3.4550684347039793 1.2330668832093292 1.1113838042880391 711.54231324394675 711.60833056734077 1.1104357034758576 
-52.546591521055845 -186.97706240487355 165.46668821880550 -52.546591521055838 -186.97706240487355 165.46668821880550 78.966877525835898 4.8017491869423365e-06 -2.7835487246006737e-06 -4.3828970733570310e-06 77.432024424101328 -2.0936849476349553e-10 -6.7214012133831602e-11 -6.1529042838515124e-07 -0.0023388882827606152 1.0141946771551880e-11 -7.6511113986469509e-11 -8.1155439879857391e-11 -0.0023362843086168479 -51.435495451599998 -185.56281141599996 168.15371392000000 294.81703600272857 0.0000000000000000 0.0000000000000000 0.0000000000000000 0.0000000000000000 3.2273592441059074 3.4661908098674510 1.2389958304653350 1.1128668246547020 697.34119707594220 697.35098091994143 1.1131020913498288 
-43.621852419147039 -172.40240131033826 163.42435229295640 -43.621852419147018 -172.40240131033818 163.42435229295640 77.438836154553684 4.1759549836360821e-06 -3.7032207641010670e-06 -1.7508035668887487e-05 0.0000000000000000 -3.3196799226814983e-08 3.7039845656272675e-07 -9.7533832907151840e-07 -0.0023807789494569246 8.1329050455688060e-11 7.9000298920010404e-11 -1.3485413038774326e-10 0.0000000000000000 -42.672974891599750 -171.18173466392949 166.26923354793541 271.88244999766295 0.0000000000000000 0.0000000000000000 0.0000000000000000 0.0000000000000000 3.2274955212888434 3.4663622341683955 1.2390273022324789 1.1127141592891956 698.92418468551068 699.09257738308179 1.1131159309241523 
-60.636368552052851 -179.32932115616796 154.24636830112198 -60.636368552052836 -179.32932115616799 154.24636830112198 82.953525868274326 2.0978843965363867e-05 2.2388623298396039e-06 -3.2970452782418810e-07 0.0000000000000000 -2.3623478173639967e-10 -6.2355676178071917e-11 -8.0242258526652666e-07 -0.0025123083303977061 -3.8540366442470782e-11 1.1202809130004705e-10 -1.3588117069552139e-10 0.0000000000000000 -59.382734921100123 -178.01738339707751 157.75061606229067 243.94852352315442 0.0000000000000000 0.0000000000000000 0.0000000000000000 0.0000000000000000 3.2276574175222281 3.4667837171453622 1.2392898479463801 1.1127862687239265 686.13272876498422 686.10966919156067 1.1132341670181738 
-31.370155662550189 -103.05761523021688 86.936303855332113 -31.370155662550172 -103.05761523021691 86.936303855332142 62.595121693868883 -1.2034297136063220e-05 3.3933923542306742e-06 2.6226135789194985e-05 0.0000000000000000 1.0388942808126635e-07 -2.9160503062786007e-07 -3.2515117943185411e-06 -0.0043898908266341080 2.7132467108975340e-10 -1.5377531773565166e-09 9.9220915762455797e-11 0.0000000000000000 -30.660097366607719 -102.72526557899965 95.328291536857705 204.58703120518373 0.0000000000000000 0.0000000000000000 0.0000000000000000 0.0000000000000000 3.2236491311901987 3.4578761266968936 1.2343694803767493 1.1110282820492137 705.60282723049340 705.60286003233205 1.1110216776345527 
-19.330060030198766 -111.30788254308256 84.791074069667729 -19.330060030198755 -111.30788254308256 84.791074069667772 50.935224648164414 1.7454810097006870e-05 -6.1159411341873778e-06 -1.7092248222585065e-06 0.0000000000000000 -9.9086544524951137e-11 -1.9102497361700443e-11 -1.9607958652301249e-06 -0.0043130144593930440 -9.4351539228850539e-10 -2.8526226615192720e-11 1.6753319861062611e-10 0.0000000000000000 -18.804221549666405 -110.90595113131390 93.354036648627854 267.24800799435923 0.0000000000000000 0.0000000000000000 0.0000000000000000 0.0000000000000000 3.2240274510244538 3.4587430056581594 1.2348605757141395 1.1117334644304573 732.22186934769843 732.22199131163984 1.1112425341044767 
-34.570756510971307 -105.07147129294326 75.795993058816592 -34.570756510971286 -105.07147129294330 75.795993058816563 73.514518204955152 3.3910977356581462e-05 -2.4648360939955267e-05 4.6309441096770104e-06 0.0000000000000000 2.2100917447016421e-07 -9.1217449929685591e-08 -3.1741580727430982e-06 -0.0044410410750794580 4.7888585276495677e-10 2.0980993346827373e-11 6.9413801421322144e-11 0.0000000000000000 -33.815892125380543 -104.71065599625929 85.007910193808286 270.69679205096202 0.0000000000000000 0.0000000000000000 0.0000000000000000 0.0000000000000000 3.2282953808215078 3.4678446284778768 1.2397052245708582 1.1131393200986686 701.42650890929178 701.42129673255101 1.1134181736050086 
-19.449119975620540 -100.63888020435408 86.995671307949152 -19.449119975620537 -100.63888020435409 86.995671307949138 58.903452500290882 1.9243646962797203e-05 -1.7370909933118930e-05 1.4860683356114374e-05 0.0000000000000000 -9.9481839432868924e-11 -1.2314815833747160e-11 -1.9240276554199909e-06 -0.0040846872764184758 -4.8300495100002353e-10 -2.5763369856135560e-10 -1.3225943372899980e-10 0.0000000000000000 -18.921183722278450 -100.37968114352928 95.398064000337470 185.31956687594098 0.0000000000000000 0.0000000000000000 0.0000000000000000 0.0000000000000000 3.2261039882201086 3.4635116229118399 1.2375696148382755 1.1123320090147906 729.04460725192064 729.04434557506090 1.1124615752961486 
-31.869797640568802 -118.48588502224418 170.89337352466072 -31.869797640568784 -118.48588502224415 170.89337352466069 90.280329663606381 -2.0508292774926654e-06 1.6972330710744518e-05 -3.5578181464828248e-05 0.0000000000000000 -4.6416262597539390e-07 -8.2717914290089361e-08 -8.8378254133983226e-07 -0.0026392816571850111 -1.5067804297475833e-10 -1.4275300150852623e-10 -1.8688902355432901e-10 0.0000000000000000 -31.124431206993112 -117.97934695114738 173.21200361760444 258.17126679857051 0.0000000000000000 0.0000000000000000 0.0000000000000000 0.0000000000000000 3.2270148531547140 3.4652896759646548 1.2384334237865771 1.1127404489121600 672.94206985738901 672.94888924609086 1.1128488537826442 
-31.377900317752331 -133.84423438592955 161.84089314850294 -31.377900317752307 -133.84423438592964 161.84089314850289 75.568231443070644 -2.4715316770974272e-05 1.0893604506744399e-05 -6.6773137026132454e-06 0.0000000000000000 -5.4102595040212169e-07 1.3649350113870312e-07 -9.5729787560021808e-07 -0.0024950186474715090 -4.1055196683604649e-10 1.9287952060772858e-10 1.3493427009611069e-11 0.0000000000000000 -30.642131568542830 -133.13454878399213 164.80820313575899 262.24283076768535 0.0000000000000000 0.0000000000000000 0.0000000000000000 0.0000000000000000 3.2246527885951330 3.4601433313018757 1.2356378613994534 1.1113033625448572 692.82085272597794 692.81706081379923 1.1115913264867876 
-43.600456370018158 -120.67639212695831 160.61296059042994 -43.600456370018165 -120.67639212695835 160.61296059042991 66.374451489018782 -1.6936928686358922e-05 -3.0463946548490524e-05 -2.0118721364486380e-05 0.0000000000000000 -7.5561361971690325e-07 -1.6045568645507776e-07 -1.7967711787895763e-06 -0.0028407743575985874 -3.1845967214473202e-10 -6.0887756993391685e-10 1.4372848940623492e-09 0.0000000000000000 -42.676694985445003 -120.10595080876966 163.70375490782192 268.28772502602959 0.0000000000000000 0.0000000000000000 0.0000000000000000 0.0000000000000000 3.2154566902666817 3.4406806246775696 1.2253487339010871 1.1092821295122208 696.82612201779682 696.83530496379376 1.1069584470603362 
-24.361818716305681 -114.68102554721578 158.62762899195579 -24.361818716305688 -114.68102554721588 158.62762899195576 74.090781212193093 -2.7893559255732880e-06 4.6944769405974050e-07 -7.1704658017021710e-06 0.0000000000000000 -1.1579506797865236e-10 -2.1251000958955046e-11 -7.2935205075452814e-07 -0.0024960787579029415 -6.1519226450778373e-11 1.1707251715151221e-10 -4.3973806069667695e-11 0.0000000000000000 -23.747323328369049 -114.23396745764113 161.81277151251504 321.01516800445251 0.0000000000000000 0.0000000000000000 0.0000000000000000 0.0000000000000000 3.2252220698785261 3.4614728557323806 1.2364042290198392 1.1118094906058793 700.70919010656246 700.70889587862246 1.1119373325023425 
-6.7679487609722040 -105.30923286986743 102.02365678629602 -6.7679487609722040 -105.30923286986742 102.02365678629600 49.906974706187320 -5.6675816889706708e-07 1.2559986805100244e-06 5.6638544974008860e-06 54.496206510479141 -5.7378851670009112e-11 -1.5294210342631231e-11 -1.6733913845712321e-06 -0.0030811799816862356 3.6465279629351412e-11 -1.1375414044071667e-11 -7.6659216991961033e-10 -0.0028071786300816128 -6.4634479885999987 -104.98755276399999 109.33149947120000 327.67017865987640 0.0000000000000000 0.0000000000000000 0.0000000000000000 0.0000000000000000 3.2269476903501886 3.4651905337736562 1.2384023260985981 1.1123630484387554 738.24253544411238 738.24259985526317 1.1128361978782590 
-12.207175483501619 -97.331837223837411 93.509736833055115 -12.207175483501617 -97.331837223837411 93.509736833055101 55.537468537374352 1.0206429556668114e-05 -1.5702759240751849e-05 -8.1452103985831934e-06 51.125401539427855 -7.5437905922015602e-11 -1.0221601343118891e-11 -1.8153862679781696e-06 -0.0037019516009151820 -1.2200889535110430e-10 1.0195682262762633e-10 -5.9944055596265588e-10 -0.0036368469401345063 -11.806838433999999 -97.116880539599975 101.43768333439998 212.90238721710071 0.0000000000000000 0.0000000000000000 0.0000000000000000 0.0000000000000000 3.2277285075177504 3.4670317787867750 1.2394698900522698 1.1127871800671838 743.06912481844415 743.06890605904857 1.1133156273328098 
-16.322450644861341 -110.75463270062984 95.299862385855462 -16.322450644861345 -110.75463270062984 95.299862385855462 45.975575622233571 -1.2315533931437361e-05 -3.0977039981574405e-06 -2.1932510839349831e-05 0.0000000000000000 -8.9100588018808935e-11 -1.8748114172240097e-11 -1.7855306104763713e-06 -0.0035340130712165256 2.1951384185763204e-10 -9.5185344719600717e-11 -1.1868893294639249e-09 0.0000000000000000 -15.849604639409371 -110.36010279166017 103.09742667861765 236.22178992679409 0.0000000000000000 0.0000000000000000 0.0000000000000000 0.0000000000000000 3.2253935889192094 3.4618665926184873 1.2366280683593480 1.1118616949935545 746.53122417820111 746.53137583877697 1.1120372189655721 
-24.364114492683811 -99.781947276381686 94.420214251993215 -24.364114492683822 -99.781947276381729 94.420214251993187 59.564766991709824 8.4796639601211060e-07 -1.5859265918466742e-05 -9.4508138861714100e-07 0.0000000000000000 -1.1580073011607796e-10 -1.1770362462470985e-11 -1.8002013639772940e-06 -0.0037170527649884621 -4.8437437366061416e-10 4.6231252865322297e-10 -1.2325137968464882e-09 0.0000000000000000 -23.749578654390465 -99.534212460059550 102.28184693721489 211.57004919854941 0.0000000000000000 0.0000000000000000 0.0000000000000000 0.0000000000000000 3.2237549093676723 3.4582111437747005 1.2346002543826389 1.1114577045994412 717.98406096119152 717.98414204480059 1.1111251368900812 
-55.161362895098804 -108.83415128316922 106.86982596756476 -55.161362895098812 -108.83415128316923 106.86982596756478 31.927242241365182 -5.4307008575448035e-06 -5.1008761792386608e-05 3.3491833139638620e-05 0.0000000000000000 -4.5848450772600772e-07 -9.9081439910280771e-07 -5.1716003509987666e-06 -0.0040172843681204069 1.6124636464842323e-09 -6.9927265567614513e-10 2.2025717678301340e-09 0.0000000000000000 -54.087034329299712 -108.37170302860723 113.84396407125838 191.01171882188567 0.0000000000000000 0.0000000000000000 0.0000000000000000 0.0000000000000000 3.2077833816039969 3.4244804868128402 1.2168018617978265 1.1045189090984684 725.90135754625237 725.90141148230020 1.1030868127940332 
-42.560660264171005 -108.19401344721268 103.78516072638205 -42.560660264171013 -108.19401344721261 103.78516072638197 42.944837342579653 9.9427955633696604e-06 -3.8671543569311215e-05 4.8123863485851032e-06 0.0000000000000000 -7.2365302497197169e-07 -3.1547580283029455e-07 -4.6947694230530692e-06 -0.0034424559153646886 -6.2753935925097051e-10 6.4350887387195688e-10 4.9807016080570412e-10 0.0000000000000000 -41.690910404717421 -107.74885629568415 110.97670241767709 270.34727434602189 0.0000000000000000 0.0000000000000000 0.0000000000000000 0.0000000000000000 3.2149539100688527 3.4398880361739925 1.2250646393319971 1.1070021393930969 716.87211438596091 716.87212071625618 1.1068261452592116 