# For a description of the Tecplot format see the Tecplot User's guide.
#
Variables=x,y,z,s_u,s_v,s_w,s_p,mono_f_vel_u,mono_f_vel_v,mono_f_vel_w,const,u_nu,v_nu,w_nu,p_nu,x_nu,y_nu,z_nu,const,u_ref,v_ref,w_ref,vol_ref,x_ref,y_ref,z_ref,const,I1,I2,I3,J,p1,p2,p3
Zone f=fepoint, n=3174, e=16683, et=brick, c=black
-25.6334 -155.296 104.034 -25.633369368142230 -155.29576813017698 104.03405361246912 -1.1425721934061162 9.7010568167493025e-06 -9.9046004775035768e-05 0.00016262405406469721 100.88833710300013 3.9237937898839453e-10 1.5411649734176081e-10 5.2658336464617150e-06 0.014983213553365356 -5.6224236360219644e-08 -4.9597654899477513e-07 -1.7347169692070982e-07 0.0086123017973495173 -24.903554063199991 -154.16086777200002 112.24023381839994 89.724962256112903 0.0000000000000000 0.0000000000000000 0.0000000000000000 0.0000000000000000 3.2646845771938895 3.5445009724352392 1.2800547448504294 1.1380749265308072 1360.2768070147492 1362.1492271367786 1.1314231389715548 
-38.506199211574582 -156.20210403254819 106.91649115544294 -38.506199211574561 -156.20210403254814 106.91649115544301 -18.739343993679597 7.4243196078304703e-05 0.00013206924027127798 -1.2311913898907292e-05 0.0000000000000000 -7.6691622062192570e-05 0.00012977949381590530 -1.3760270340863768e-05 0.0056535224952459833 -1.1901466404022822e-08 -7.4673941493558563e-08 2.6163839418338853e-08 0.0000000000000000 -37.438273663334591 -155.10473791080037 114.93291110338620 89.036758072416930 0.0000000000000000 0.0000000000000000 0.0000000000000000 0.0000000000000000 3.3145806625874163 3.6557596278718303 1.3418033713281197 1.1546775764056765 1690.6962668531173 1690.9756436437601 1.1583803720047963 
-32.409239237745929 -148.91617464863617 112.34914669563533 -32.409239237745943 -148.91617464863614 112.34914669563526 -35.264910148386136 -2.3104773104760044e-05 0.00014074049307968419 6.5384830513879182e-05 0.0000000000000000 4.6593298663744065e-10 1.4082135457726963e-10 4.8205157803238308e-06 0.011361061842676323 -2.5692207626371354e-08 1.8373854364968895e-07 1.7958763393368982e-07 0.0000000000000000 -31.542619574254449 -147.87907313389167 119.86135157363466 98.260374494724786 0.0000000000000000 0.0000000000000000 0.0000000000000000 0.0000000000000000 3.2877293010507751 3.5961341548606813 1.3087972099122489 1.1449968336244305 1652.2051383707587 1646.6372207415986 1.1439324107408673 
-29.454621915458070 -143.92801486475457 103.90780397388158 -29.454621915458087 -143.92801486475449 103.90780397388154 -24.069496813630611 -0.00025611418153889150 5.7819203207528031e-05 0.00014476573850503250 0.0000000000000000 4.3385831038911249e-10 1.3043632840492592e-10 5.2725949934995242e-06 0.059934359472584298 -3.1837033659820057e-07 2.3331691972701033e-07 1.7376440700041345e-08 0.0000000000000000 -28.647655777685479 -142.96738158566356 112.12452093910819 112.69127588814607 0.0000000000000000 0.0000000000000000 0.0000000000000000 0.0000000000000000 3.2958379651673235 3.6123453031345174 1.3168524592465694 1.1489980102469171 1603.4400087836427 1603.5041548603697 1.1474623850239392 
-24.978452779306075 -202.28743998849117 62.013328378538276 -24.978452779306078 -202.28743998849114 62.013328378538276 -2041.1251577579148 -0.00017856976120434129 9.6747299250864201e-05 -0.00013531654722785043 -1943.7066848137240 3.8526862256027528e-10 2.5193780395227355e-10 7.5162690045260661e-06 0.0036155929820180957 -3.6765535616993717e-09 1.9335887395925876e-08 -3.4946504607155874e-09 0.0043256464723774998 -24.261860196399997 -200.43215969199997 73.726546483199982 142.71380061529433 0.0000000000000000 0.0000000000000000 0.0000000000000000 0.0000000000000000 3.2637958099111688 3.5428770869463415 1.2793320446419278 1.1308781605241136 4844.0820906609688 4844.0810023050872 1.1310750335411601 
-24.871837796345424 -189.29518743396949 63.740841922176401 -24.871837796345428 -189.29518743396946 63.740841922176401 -2088.3133144872454 0.00013306453558087963 5.0168644617746847e-05 9.3239083239307990e-05 -2137.4451588765146 3.8411121505710355e-10 2.2488477746662738e-10 7.4237513913999481e-06 0.0089507613033725543 3.0073795260187886e-09 -3.3318895013385660e-08 -1.2851534799079889e-08 -0.0061126407826936138 -24.157397762799999 -187.63907770800003 75.309882232799993 165.73632395326644 0.0000000000000000 0.0000000000000000 0.0000000000000000 0.0000000000000000 3.2635446702165174 3.5422046432776595 1.2789024117479142 1.1308781605241125 5115.8328949373827 5115.8329839221042 1.1308752186526694 
-35.821046088327513 -197.18844185026850 70.600111519811634 -35.821046088327506 -197.18844185026859 70.600111519811605 -1977.8999567309963 0.00017289061790646575 -5.8290515108729833e-05 1.1583361016950621e-06 0.0000000000000000 5.0296614095834968e-10 2.4131607823107970e-10 7.0564006904305626e-06 0.012370273380211884 -2.0393335495850020e-08 -1.1642120211639314e-08 -1.1447601819075769e-08 0.0000000000000000 -34.885542273181727 -195.41132893576267 81.596679120775832 139.46796289390394 0.0000000000000000 0.0000000000000000 0.0000000000000000 0.0000000000000000 3.2614265414278938 3.5379693056524806 1.2767949909860328 1.1281917425484187 4929.3798110225662 4929.3841720399241 1.1299610527439858 
-19.427112352730994 -196.29308717457226 70.399657567075280 -19.427112352730997 -196.29308717457215 70.399657567075323 -2062.5596310888604 -1.2121603758987382e-05 0.00037902379866908267 0.00025638202114374868 0.0000000000000000 3.2500938051960304e-10 2.3944912719287009e-10 7.0671360745677703e-06 0.0030228378603090072 9.8133375869413245e-09 1.3954695093090797e-08 7.5676602112029963e-09 0.0000000000000000 -18.822600960987238 -194.52970000168264 81.412954998504986 111.95285379220412 0.0000000000000000 0.0000000000000000 0.0000000000000000 0.0000000000000000 3.2643055220820960 3.5438461418627143 1.2797893783664385 1.1308781605241158 5138.7239649076973 5138.7241210187667 1.1312830055360132 
-23.347648834557916 -103.54954270766964 28.749253086025565 -23.347648834557916 -103.54954270766963 28.749253086025565 -840.98852721827950 -0.00013263590801306107 0.00023466716722962173 -0.00022045558150434795 -894.49686305298451 3.6756567234341730e-10 4.6385340013443965e-11 9.2977387708970110e-06 -0.036657556400222772 7.7453208511188939e-09 -1.2321680315533473e-08 1.2325273872892791e-08 -0.034293086509655117 -22.663982073999996 -103.20790935200000 43.238681550399988 69.202643319072678 0.0000000000000000 0.0000000000000000 0.0000000000000000 0.0000000000000000 3.2633423232424983 3.5418841738262126 1.2787903720555736 1.1308781605241116 2939.3287052099204 2939.3286234935408 1.1308361673911864 
-30.989618298266219 -111.23251994982685 32.840807508726982 -30.989618298266222 -111.23251994982685 32.840807508726982 -763.03637845794901 -4.5949220838537388e-05 0.00021640144034904877 -0.00020005133774626989 -696.49903221040597 4.5051831709663759e-10 6.2383653798292471e-11 9.0786140738430277e-06 -0.040102917737849013 1.7731606137239666e-09 -8.0048564454320830e-09 6.2968036590589251e-09 -0.043164160489097832 -30.151660686400003 -110.77310694400001 46.988755992800002 74.715282964229786 0.0000000000000000 0.0000000000000000 0.0000000000000000 0.0000000000000000 3.2635763607343811 3.5423674572624084 1.2790399246835096 1.1308781605241125 2698.3202284214667 2698.3201584287935 1.1309466157883379 
-19.337859700680564 -103.91427297206269 36.135439912031806 -19.337859700680561 -103.91427297206269 36.135439912031806 -716.91103967684433 -0.00012221373285411632 0.00013812254390421576 -0.00020018287187330256 -725.11958925847557 3.2404182115364217e-10 4.7152504123459948e-11 8.9021688260970660e-06 -0.041514718115423517 3.9846460968441855e-09 -5.4871381008015065e-09 7.2710068797453138e-09 -0.042621316435568761 -18.735150314000002 -103.56704831999998 50.008419303199993 79.719497061372692 0.0000000000000000 0.0000000000000000 0.0000000000000000 0.0000000000000000 3.2633567723663006 3.5419031264027372 1.2787945540641290 1.1308781605241123 2671.3070532428655 2671.3077785291866 1.1308378312016723 
-26.233817545554381 -98.755733691779199 37.197934029339081 -26.233817545554381 -98.755733691779213 37.197934029339081 -747.23844999051903 -4.5371651626939190e-06 4.5344815343620830e-05 -0.00039367045806034366 0.0000000000000000 3.9889416769689490e-10 3.6404879111273658e-11 8.8452665600868841e-06 -0.040374565750759525 -2.4390806895935406e-09 -3.7198269509911549e-09 1.3081139415802979e-08 0.0000000000000000 -25.491879232152165 -98.487589184379729 50.982237960580505 72.292163684038698 0.0000000000000000 0.0000000000000000 0.0000000000000000 0.0000000000000000 3.2635202571603945 3.5422762064014868 1.2790054677584086 1.1308781605241127 2768.5537079977576 2768.5536651412194 1.1309313645183723 
-26.346217719864434 -104.35527418295891 100.29415121463360 -26.346217719864431 -104.35527418295895 100.29415121463356 -187.65629131617951 -8.6934293209160989e-05 0.00079928162422302613 -0.00071530181395708479 0.0000000000000000 -0.00030464415272203556 -1.3085151888544903e-05 -4.2877272166945132e-05 -0.24593091988667820 -1.0729370708016364e-06 -1.2846674527157448e-06 9.4210383689553264e-08 0.0000000000000000 -25.283559732051039 -104.23282252886388 108.75695162467670 96.378087069502698 0.0000000000000000 0.0000000000000000 0.0000000000000000 0.0000000000000000 3.3271605454452771 3.6770569234622212 1.3498008154435872 1.1576365067640466 1882.2585945523756 1882.2841885639359 1.1616322760623730 
-26.954264216991739 -118.28243186689349 102.35763295568191 -26.954264216991753 -118.28243186689357 102.35763295568188 15.974790439074376 0.00023737088848416714 -0.00054201659837116640 -0.00052132835779412066 0.0000000000000000 -0.00022241361301181937 0.00035913515819327500 0.00020302657588447233 -0.15999940297013565 -1.5086101169429152e-07 1.6352743375562688e-07 2.2869869887083399e-06 0.0000000000000000 -25.913646985361510 -118.01095136745833 110.66456878241424 88.846747377876298 0.0000000000000000 0.0000000000000000 0.0000000000000000 0.0000000000000000 3.3781397758176168 3.7915741170348154 1.4135358124427737 1.1714727991393754 1720.7369670429089 1720.5159859687117 1.1894346645873908 
-38.024969863937578 -112.24808554914709 104.01007502411949 -38.024969863937571 -112.24808554914713 104.01007502411949 -590.16424171457732 -0.0024868519064169580 0.00010847428650066628 0.00010754180454232044 0.0000000000000000 -0.00026389967457192068 0.00061571298323805893 0.00024186150227461134 -0.63788924322656637 7.7090428583468033e-07 1.7118960453587657e-06 2.0257768517740862e-06 0.0000000000000000 -36.236867317722961 -112.72601430119678 112.03758904139967 95.996160021407249 0.0000000000000000 0.0000000000000000 0.0000000000000000 0.0000000000000000 3.2284978554735768 3.4642348014713202 1.2350917167870035 1.1177022957327232 2294.5734392654867 2294.5698558901981 1.1103269759368177 
-34.948031516687863 -104.84803120953698 97.231633363355144 -34.948031516687848 -104.84803120953698 97.231633363355158 -256.96274346576030 -0.0010012863847754271 0.00057826080032702875 0.0015453565439307569 0.0000000000000000 -0.00026476965296081014 0.00031678992125771399 -3.5715711556368907e-05 -1.2284816044859970 -9.8682407068299389e-07 8.8757236821269782e-07 -5.1990586537086546e-06 0.0000000000000000 -33.380789828628046 -105.09637623893835 105.63342596379557 85.433794965156210 0.0000000000000000 0.0000000000000000 0.0000000000000000 0.0000000000000000 3.3167806122586727 3.6518844963825079 1.3349324867817010 1.1423664760035803 1540.2512953794044 1540.2541949155373 1.1555148693865569 
-114.74846545035808 -161.89961662352889 117.58941770003436 -114.74846545035804 -161.89961662352886 117.58941770003436 -258.64280103034042 -1.1458742372323228e-05 4.5813519990706062e-05 -2.5519633429309866e-05 -236.33190776018895 1.3597093728723308e-09 1.6784729162111492e-10 4.5398711385757906e-06 -0.049046945447939187 8.3993571286414291e-09 -3.3994633249831560e-08 6.8031195670219890e-08 -0.039644871599436547 -112.21942232800005 -160.66347960400000 124.66427103520003 147.55923210393107 0.0000000000000000 0.0000000000000000 0.0000000000000000 0.0000000000000000 3.2595577593805438 3.5337069310256930 1.2743834045052531 1.1308781605241129 1859.4512568253342 1865.0324303442974 1.1288972221273619 
-101.80023672331926 -159.29083346590627 108.77427882318386 -101.80023672331932 -159.29083346590627 108.77427882318393 -239.79706390023804 -6.7267000807901697e-05 -6.7460714718801213e-05 2.0645966147651377e-05 0.0000000000000000 1.2191622433821434e-09 1.6242807099331458e-10 5.0119691472616523e-06 -0.059477083631631796 2.7662345881048372e-08 1.7906565438829950e-07 3.7179422988537008e-08 0.0000000000000000 -99.532617471171264 -158.09468895943013 116.58484116745363 117.70414803503969 0.0000000000000000 0.0000000000000000 0.0000000000000000 0.0000000000000000 3.2754376197601016 3.5672790810446706 1.2921164534676641 1.1360671627351546 1894.4863523700408 1884.9797231164926 1.1366883413238618 
-106.70929536994718 -149.90727484288749 113.47338432966605 -106.70929536994711 -149.90727484288752 113.47338432966610 -239.64793289625734 -4.4853168386284881e-05 2.8001334741998269e-05 0.00032924332451525999 0.0000000000000000 1.2724542808317805e-09 1.4288548122465270e-10 4.7603068260571027e-06 -0.083624012632237524 2.7469962116777860e-08 -2.7622409914207781e-08 -2.1633860970730499e-07 0.0000000000000000 -104.34256255272837 -148.85497981259945 120.89176065121424 119.29379793442074 0.0000000000000000 0.0000000000000000 0.0000000000000000 0.0000000000000000 3.2728254717637624 3.5624042411218579 1.2898591716895351 1.1370411526331905 1916.5865503139646 1920.2522442721188 1.1357123835093150 
-102.81858941960746 -163.54440627901187 117.48417889789144 -102.81858941960749 -163.54440627901195 117.48417889789150 -243.70339304139449 -2.1129078838570699e-05 -1.8920937795325721e-05 1.1210585087266008e-05 0.0000000000000000 1.2302151797261016e-09 1.7129431206797110e-10 4.5455072488209680e-06 -0.048316581759245004 -2.1326763007282465e-08 3.6222733143427733e-09 4.4440910499099126e-09 0.0000000000000000 -100.53040969477119 -162.28305471776312 124.56781543385799 141.51484144144280 0.0000000000000000 0.0000000000000000 0.0000000000000000 0.0000000000000000 3.2659856921641510 3.5476358442564804 1.2819085709725606 1.1331221492742096 1849.3497625236794 1846.2312289234401 1.1322125438901873 
-80.232699698674466 -149.84883717176353 79.166619674893269 -80.232699698674452 -149.84883717176353 79.166619674893255 -348.95306924198292 -0.00028575641118853019 0.00017413724541553798 -0.00012043301946425619 -321.12921402124942 9.8504640555496813e-10 1.4276957394088186e-10 6.5976181993221417e-06 -0.043746061468339141 -6.2764455219041200e-08 1.4583692457748528e-07 -4.7318625531032408e-08 0.039735714017006374 -78.400527573600002 -148.79743798799998 89.448228916799977 108.06316173413846 0.0000000000000000 0.0000000000000000 0.0000000000000000 0.0000000000000000 3.2638994374670038 3.5420170799337352 1.2783185454337023 1.1308781605241138 2058.4888225999493 2058.5179187531362 1.1306381596365433 
-82.017571863255426 -163.79991277888988 77.338855819671991 -82.017571863255412 -163.79991277888988 77.338855819671991 -394.81529863802723 5.5017353597473762e-05 -0.00012465619324193388 9.4197173868000505e-06 -394.37627885191534 1.0044215736915161e-09 1.7182455458453205e-10 6.6955047621775066e-06 -0.022662839849270967 2.8217088624436929e-08 2.5674610898275209e-08 3.8368543449329016e-08 0.0016036370803942180 -80.149363288800018 -162.53464431600008 87.773009718400019 109.57810873427631 0.0000000000000000 0.0000000000000000 0.0000000000000000 0.0000000000000000 3.2676798838691123 3.5510076603828371 1.2835928281270363 1.1308781605241127 2083.6488025066360 2083.7108002069904 1.1329646234346282 
-86.249121898890849 -161.41311230983419 85.194686765302365 -86.249121898890778 -161.41311230983413 85.194686765302336 -376.97319943136574 -0.00014268894586593384 -1.8128496384537779e-05 -0.00016469240645448211 0.0000000000000000 1.0503590497368265e-09 1.6685786086156898e-10 6.2747828444287279e-06 -0.035334116890850149 -4.9134685704076206e-09 4.8895519368013745e-08 1.1806842899684559e-07 0.0000000000000000 -84.295478612813938 -160.18443337667750 94.973195224810283 106.11323630727971 0.0000000000000000 0.0000000000000000 0.0000000000000000 0.0000000000000000 3.2581980391654257 3.5324923439195461 1.2745760982930967 1.1280795069606842 2052.6210925892751 2052.1971676553603 1.1289593000098135 
-88.472544726758542 -152.48191322158294 82.643014581776484 -88.472544726758542 -152.48191322158297 82.643014581776484 -464.26153782905993 -0.00037881093975019914 9.7079924854384019e-05 -0.00029246541325805581 0.0000000000000000 1.0744886369540296e-09 1.4824208527386418e-10 6.4114385907032556e-06 -0.057957341897971727 -9.8270801334487792e-08 5.0956538410225861e-08 1.4038083487765708e-07 0.0000000000000000 -86.474010682800568 -151.39014911596544 92.634484883397832 94.367740677547317 0.0000000000000000 0.0000000000000000 0.0000000000000000 0.0000000000000000 3.2489525678385203 3.5117487590791119 1.2630134206119275 1.1267571116051549 2209.8431737649739 2209.6266336596823 1.1238484589917637 
-26.771449598519546 -133.22748988771258 132.84281550351480 -26.771449598519549 -133.22748988771261 132.84281550351483 -39.289724228366062 0.00010506069291628583 -0.00024780281488649220 0.0014717028236105199 28.161745017906188 4.0473061013734940e-10 1.0816569862015513e-10 3.7229698293117504e-06 0.33456040412753979 1.2874505285054203e-07 -3.3995978562614560e-07 2.5510738959547636e-06 0.33704599468667679 -26.018656529999991 -132.43089511199997 138.64462455200004 49.421240865332216 0.0000000000000000 0.0000000000000000 0.0000000000000000 0.0000000000000000 3.2562612536008833 3.5280951317510731 1.2723560105406106 1.1383248145392364 1316.5922714521678 1330.0034979078498 1.1280297181326620 
-33.381700505717568 -134.77716452910659 131.70628674093518 -33.381700505717582 -134.77716452910664 131.70628674093513 -64.641150343391786 -0.00028598578993158883 -0.00014244484888023963 7.3069149153024378e-05 -414.35722033695862 4.7648365808505844e-10 1.1140000033549313e-10 3.7838370481324546e-06 0.18399442987147857 -5.8238744478561756e-07 -3.6446644741952426e-07 8.7576577913563994e-07 1.3885663669144706 -32.495446914399992 -133.95681332000001 137.60295016000006 48.530522504776933 0.0000000000000000 0.0000000000000000 0.0000000000000000 0.0000000000000000 3.2880402105738873 3.5927325683573992 1.3044184794708966 1.1443806536768952 1623.5553899025060 1622.7357312203708 1.1418024961429543 
-29.220441915671643 -137.29776905624109 134.65986602883879 -29.220441915671643 -137.29776905624109 134.65986602883874 -105.78634954203277 0.00016777969758028952 0.00031984562286585175 3.9830319082383687e-05 -143.96957111723825 4.3131601068502329e-10 1.1663048304910717e-10 3.6256570048465164e-06 0.072348598806444647 4.4983614881390889e-07 7.8493311454551936e-08 2.7121860391184542e-08 -0.19701926233635150 -28.418203856399998 -136.43877710800004 140.31002455199999 44.353383947079159 0.0000000000000000 0.0000000000000000 0.0000000000000000 0.0000000000000000 3.2592095130649663 3.5328682951042065 1.2738932809271328 1.1317835527419444 1579.4016662643628 1587.0494414504096 1.1286499790041167 
-27.536607037243026 -130.25272896679576 138.52037263838105 -27.536607037243019 -130.25272896679581 138.52037263838108 -238.75652350059534 -1.5877843111371432e-05 0.00027962248209034869 8.4199371800198510e-05 0.0000000000000000 4.1303629960687260e-10 1.0198353272983239e-10 3.4189061750566907e-06 0.024178352758532206 -3.4035681390431455e-07 1.1927235000129946e-07 -1.1502297011120303e-07 0.0000000000000000 -26.768365491316434 -129.50173712462359 143.84833436668455 49.139845408488213 0.0000000000000000 0.0000000000000000 0.0000000000000000 0.0000000000000000 3.2906169891980768 3.6013465930774076 1.3110019764154925 1.1398051824865656 2181.0085728700597 2141.8478770944375 1.1448737899443133 
-41.111070988544270 -65.230271879838739 149.54558002441891 -41.111070988544270 -65.230271879838725 149.54558002441894 -657.40385885388753 0.00084988175959039788 4.9424230763868605e-05 -0.0015011720452114618 -137.59814636217899 5.6038820805959233e-10 -3.3383740216663682e-11 2.8284471262907118e-06 0.30394189109567621 2.0585235734456496e-06 2.1797218303104031e-07 -2.9624760569532881e-06 1.7452785946282174 -40.068761925200000 -65.476070995999990 153.95338104800004 156.95717166164070 0.0000000000000000 0.0000000000000000 0.0000000000000000 0.0000000000000000 3.3232098316364760 3.6685966964102756 1.3456967777006168 1.1378017637361921 2389.0349202404859 2389.0347742715976 1.1605466896011003 
-53.723715414608435 -59.319363224136325 144.42898379116963 -53.723715414608442 -59.319363224136318 144.42898379116966 -864.99279887507294 0.0011832337625294882 0.00076676645523737243 -0.0030696097098438816 -361.95597912017718 6.9729946816643452e-10 -4.5682124749646391e-11 3.1024683302405261e-06 -1.0801041529998909 -5.6714047058329053e-06 -8.7083168204618705e-07 5.8239801139175372e-06 -2.3273057496837959 -52.426757905599978 -59.655776269200025 149.26381449600007 118.05125250056595 0.0000000000000000 0.0000000000000000 0.0000000000000000 0.0000000000000000 3.2889889682157665 3.5964371814777540 1.3077109735185917 1.1353285303667675 2966.4119190065571 2966.4120349965092 1.1433789676969899 
-36.114342716818307 -65.792591380773217 139.77646226208810 -36.114342716818314 -65.792591380773246 139.77646226208805 -1579.3523958281523 -0.00042464610962437798 0.00055739986266580628 -0.0014674387652571718 -1660.5224414494987 5.0614837321383277e-10 -3.2210456524239817e-11 3.3516358293184112e-06 0.30388459228995957 2.8562747771889545e-07 -5.8380168060071373e-07 8.6984227916507610e-07 0.25734650746431736 -35.172917262399999 -66.029770167599992 144.99959110400002 155.12084301790807 0.0000000000000000 0.0000000000000000 0.0000000000000000 0.0000000000000000 3.2332676683316257 3.4801250376966428 1.2470266530268890 1.1211259895299230 4808.6773953134534 4808.6768713511938 1.1163414879127418 
-51.668286787547984 -66.361673399999702 136.72572836412743 -51.668286787547991 -66.361673399999731 136.72572836412743 -1641.0290519816499 0.00068494705434089158 0.0025431545380841460 -0.0042088544875800013 0.0000000000000000 6.7498753808514778e-10 -3.1021851754076124e-11 3.5150189887644956e-06 -0.56865639562341386 -3.8597607051882539e-06 -9.4725194155765306e-06 2.8665231029363917e-06 0.0000000000000000 -50.412828244765279 -66.590128188430739 142.20347059834828 136.07757377940416 0.0000000000000000 0.0000000000000000 0.0000000000000000 0.0000000000000000 3.1644751035679040 3.3225694426167807 1.1579169924692965 1.0974695458416921 4204.3206311433505 4204.3206429302563 1.0761301134350358 
-96.724866711765529 -159.92258030537741 66.268809831432335 -96.724866711765557 -159.92258030537738 66.268809831432335 -713.04593493851849 -0.00023362158411375559 -1.8248186687002536e-05 -0.00028312620258547549 -787.38361958082339 1.1640714225880087e-09 1.6374790412498894e-10 7.2883651327515500e-06 -0.030234168139054204 -1.9637482427626811e-08 6.8225539746811696e-09 -2.4256898908654826e-08 -0.025110292500521120 -94.559718839999974 -158.71675115199997 77.626866652000004 109.98746742214213 0.0000000000000000 0.0000000000000000 0.0000000000000000 0.0000000000000000 3.2629965434377461 3.5411125513863904 1.2783623359673852 1.1308781605241129 2787.9761342207235 2788.0072019689546 1.1306484646491466 
-91.746780112966604 -159.66833680952374 71.518428699539527 -91.746780112966619 -159.66833680952371 71.518428699539527 -493.35986409174461 -0.00048313116960162135 0.00066738888042304479 -0.00018187058208122748 -354.52079855131677 1.1100284302845154e-09 1.6321632934079844e-10 7.0072198674608899e-06 -0.027424964898493984 -1.4671187051222673e-08 -2.8387248686006175e-08 -9.0063791113099394e-09 -0.00057059044658259203 -89.682139475999989 -158.46640519600001 82.438353807199988 112.88451412247700 0.0000000000000000 0.0000000000000000 0.0000000000000000 0.0000000000000000 3.2632606351228333 3.5415416174799721 1.2785257473190526 1.1308781605241116 2180.3488466844751 2179.9032334349654 1.1307172744736815 
-105.04295613546996 -156.09113188878865 76.068836681351272 -105.04295613546994 -156.09113188878868 76.068836681351257 -708.16247448358138 -1.5614047516546292e-06 0.00016922011798479013 -0.00010862833931331793 0.0000000000000000 1.2543696359390566e-09 1.5576584466714394e-10 6.7635211102867743e-06 -0.043682363363851222 -2.4583951920347531e-08 -1.0747839705673620e-08 5.0719627868962733e-08 0.0000000000000000 -102.70986659571734 -154.94403864466588 86.608986019839278 111.02505284862640 0.0000000000000000 0.0000000000000000 0.0000000000000000 0.0000000000000000 3.2628403228753347 3.5407209957666050 1.2781220757459757 1.1290534078257948 2756.4361974891599 2757.4369599826591 1.1305332400265291 
-102.69270275839831 -168.51140873504465 72.862309993660290 -102.69270275839834 -168.51140873504474 72.862309993660332 -504.79801206830535 -0.00038973041958584943 0.00032776892301954885 -0.00048869358925505242 0.0000000000000000 1.2288460526921341e-09 1.8161538939409638e-10 6.9352478213602345e-06 -0.031023380005105947 2.4301221087043121e-09 3.7620877470165706e-10 3.2469476969441445e-09 0.0000000000000000 -100.40706467681501 -167.17391327890167 83.670075146830683 105.53983917324770 0.0000000000000000 0.0000000000000000 0.0000000000000000 0.0000000000000000 3.2648754556642428 3.5453636221028502 1.2807492510561140 1.1305611519796939 2206.1679775281159 2206.7844932121384 1.1317005603772252 
-117.20265529483861 -100.09451945299183 86.939365829656950 -117.20265529483862 -100.09451945299180 86.939365829656950 -417.43015938314795 -9.9966506704561615e-06 -6.6281902338132475e-05 9.1469592548123390e-05 -373.57653597097482 1.3863618308906922e-09 3.9191982992292651e-11 6.1813459275583674e-06 -0.089672487316973193 -8.9896252857233038e-08 -1.3230569681095387e-07 -4.0567699633710961e-07 -0.059686531646138158 -114.62406224400000 -99.805851428000011 96.572263865600007 85.211636250682801 0.0000000000000000 0.0000000000000000 0.0000000000000000 0.0000000000000000 3.2635024195427893 3.5418014941448486 1.2785256718928149 1.1338129472281779 2107.7707830742734 2107.7684725068470 1.1307132798619279 
-113.59328216525205 -91.250735236589662 90.920647090077509 -113.59328216525205 -91.250735236589662 90.920647090077495 -432.10485910608276 4.0623823572401235e-05 1.7073098875069611e-05 0.00024889531081750830 -463.61626428875758 1.3471705140322143e-09 2.0788926136106056e-11 5.9681269455325028e-06 -0.17502883443368772 1.9711340835058948e-07 4.9693443447948463e-07 -4.4020204372009828e-08 -0.15390564613906405 -111.08756211600000 -91.097641973600034 100.22126851279998 99.535403830130534 0.0000000000000000 0.0000000000000000 0.0000000000000000 0.0000000000000000 3.2569728590516482 3.5275538401928563 1.2708009220866734 1.1323018532935218 2158.8765937807839 2158.8784461727923 1.1273318580204719 
-115.44750473057614 -97.910999665766852 99.829740302368265 -115.44750473057614 -97.910999665766880 99.829740302368251 -414.27644975382287 6.0375923268152574e-05 0.00026702548432135104 -0.00016909271739375768 -522.67583255635304 1.3672997456470881e-09 3.4646285840267410e-11 5.4909971893835063e-06 -0.10586968709067344 -5.5934521692014761e-08 -1.6525317793736413e-07 1.5877297311507980e-07 -0.017354683314187273 -112.90434805199999 -97.655804887999992 108.38681131359999 128.09762094244454 0.0000000000000000 0.0000000000000000 0.0000000000000000 0.0000000000000000 3.2557987429913098 3.5251099851670915 1.2695285424613076 1.1340192078001117 2264.2369261266535 2264.2363201166472 1.1268671395033041 
-109.57934523125111 -104.19269414165859 91.279492744495002 -109.57934523125105 -104.19269414165863 91.279492744495030 -458.17852858069608 -3.1394318024084489e-05 -0.00019371460507791596 0.00023983819183081800 0.0000000000000000 1.3036071389027626e-09 4.7730486230079811e-11 5.9489088286568403e-06 -0.13029672218789667 2.6310717632988551e-07 -3.5819938763318186e-08 1.6799224761250084e-07 0.0000000000000000 -107.15466629968294 -103.84120130723400 100.55016500991876 102.24201981555134 0.0000000000000000 0.0000000000000000 0.0000000000000000 0.0000000000000000 3.2720574476460476 3.5619887536426416 1.2902345584484392 1.1368048842862168 2235.2188684769353 2235.2177949391485 1.1358561491819930 
-27.944788799552310 -115.62189262666341 94.418067116039069 -27.944788799552295 -115.62189262666337 94.418067116039012 -10.870271446594407 0.00034102227932098048 -0.00020774115710475016 -0.00016806773150259023 0.0000000000000000 -0.00023143166565377569 0.00043507833204030913 6.0698071701745385e-05 -0.13229566647325905 -8.4997448525546768e-08 1.9201107475906862e-06 -1.6475888899964586e-06 0.0000000000000000 -26.889884864405381 -115.37486796036181 103.37575244326078 96.382960025775517 0.0000000000000000 0.0000000000000000 0.0000000000000000 0.0000000000000000 3.3587144792286092 3.7477774289193908 1.3890818736951780 1.1682441667413133 1770.3137241402235 1770.5154977506174 1.1785686243332192 
-112.04274905772769 -103.96985000921407 147.62975463253829 -112.04274905772765 -103.96985000921406 147.62975463253829 -119.07710643785143 -2.8257889021441818e-05 -8.2291816021452981e-05 -3.3225709081100173e-05 -118.32635146745774 1.3303399770681068e-09 4.7266413005786483e-11 2.9310498597112655e-06 0.049179463220242088 3.0951881768924965e-08 -4.6197455196564434e-08 2.8042544651857620e-07 0.12618120119030718 -109.56833416800004 -103.62177336400003 152.19744990400002 70.302883591683823 0.0000000000000000 0.0000000000000000 0.0000000000000000 0.0000000000000000 3.2496238787038929 3.5124371191048542 1.2630203750257702 1.1317804448794857 1561.4820705681884 1561.4820571349164 1.1238800762576611 