# For a description of the Tecplot format see the Tecplot User's guide.
#
Variables=x,y,z,s_u,s_v,s_w,s_p,mono_f_vel_u,mono_f_vel_v,mono_f_vel_w,const,u_nu,v_nu,w_nu,p_nu,x_nu,y_nu,z_nu,const,u_ref,v_ref,w_ref,vol_ref,x_ref,y_ref,z_ref,const,I1,I2,I3,J,p1,p2,p3
Zone f=fepoint, n=1339, e=6475, et=brick, c=black
-59.4626 -70.3795 175.074 -59.462589482091133 -70.379519030127625 175.07352273634709 135.29146542237598 1.3598158436833395e-06 3.3788635557902351e-06 -5.0239395851828551e-06 133.21309924500633 -2.4543045651359567e-09 9.6294083817838327e-11 -1.1632618956980423e-06 0.0021392633327042988 2.3228316319648859e-11 -3.3541137587471954e-11 5.5735513004086215e-11 0.0021502784252844390 -58.668039002000000 -70.473359259200009 176.35421013599998 215.13583165143561 0.0000000000000000 0.0000000000000000 0.0000000000000000 0.0000000000000000 3.1401558045659503 3.2846881934720149 1.1445711149090503 1.0705278343117255 298.31913164834822 298.31866423885316 1.0698482409645842 
-65.829972140156912 -76.372514698316067 183.12156878356441 -65.829972140156897 -76.372514698316067 183.12156878356441 145.94899300990764 -1.0901008591016236e-05 9.9371238655350840e-06 -1.3579957093217485e-05 144.72246417777302 -2.6776283690299611e-09 4.3277270656005833e-11 -8.2015069224894432e-07 0.0020767438202932875 3.2728006529500604e-11 -6.3029804529880169e-11 6.7737558254972752e-11 0.0020931228979901876 -64.963123215600007 -76.414687385200040 184.02450960799996 253.42820447565578 0.0000000000000000 0.0000000000000000 0.0000000000000000 0.0000000000000000 3.1388731606505709 3.2819965117702257 1.1431598510363465 1.0705278343117257 273.59656625248363 273.59811505046542 1.0691900625265913 
-70.584425978021400 -71.499965739391584 175.99944434607673 -70.584425978021400 -71.499965739391570 175.99944434607667 135.69497363032215 2.4127755096092475e-06 3.3578808453760250e-06 -4.8247232630229732e-06 136.17110460057876 -2.8443861987970105e-09 8.6386897635293268e-11 -1.1237872321601117e-06 0.0021596494777499273 2.0756737676736759e-11 -3.2020654858895427e-11 5.9379385331467085e-11 0.0021640596875961769 -69.663592608799988 -71.584146237200002 177.23667228800005 218.29881668600640 0.0000000000000000 0.0000000000000000 0.0000000000000000 0.0000000000000000 3.1383843986341495 3.2810040555110187 1.1426560779311727 1.0705278343117237 290.00170618806879 290.00169813112103 1.0689554182290599 
-57.942293562732736 -87.782974882074143 170.15950486894866 -57.942293562732686 -87.782974882074100 170.15950486894869 132.29297613419453 3.9423738529928846e-06 -2.1992149912896835e-06 -1.2913125758288853e-05 0.0000000000000000 -2.4009841059768888e-09 -5.7674531817042394e-11 -1.3727605452373837e-06 0.0021520750047022887 -1.3822061017392488e-11 -3.4630325014906138e-11 1.0215519263969025e-10 0.0000000000000000 -57.165005282198301 -87.726774323660578 171.67083873969227 259.76550921814646 0.0000000000000000 0.0000000000000000 0.0000000000000000 0.0000000000000000 3.1475003864661075 3.3000048354982106 1.1525533402593025 1.0728904052622197 328.21454163163793 328.21382413346129 1.0735673456792605 
-90.040087402940458 -83.396304037277162 112.91472036663535 -90.040087402940514 -83.396304037277133 112.91472036663529 146.02055611321606 1.3273607747436049e-05 -1.2871969823672380e-05 -1.7956429805093153e-06 0.0000000000000000 -3.5267596898425065e-09 -1.8864798612128197e-11 -3.8132693376269340e-06 0.0029301158300329491 -1.6078828812395683e-10 1.0744403352742667e-10 1.8122426318304841e-10 0.0000000000000000 -88.898344731952406 -83.377922378373768 117.11292023788836 283.91631954144174 0.0000000000000000 0.0000000000000000 0.0000000000000000 0.0000000000000000 3.1504360184620022 3.3065296909951063 1.1561536667745187 1.0742450557255450 304.47158572451184 304.46459568847871 1.0752408264091786 
-98.837323675585907 -66.776800206605245 103.58400084033602 -98.837323675585921 -66.776800206605245 103.58400084033602 150.97118571212690 7.5944511542468901e-06 1.1680991234066953e-05 -2.2398712864424582e-05 147.31884842845335 -3.8352999942592447e-09 1.2817080730087582e-10 -4.2110645814830150e-06 0.0030439222594385268 1.1288612702720815e-11 -3.0642969670443740e-11 2.5824318409227164e-10 0.0030579626302698936 -97.595692787999965 -66.901700632800015 108.22015140479995 322.25788568967050 0.0000000000000000 0.0000000000000000 0.0000000000000000 0.0000000000000000 3.1379578645654855 3.2799777075449326 1.1420532113817097 1.0705278343117255 262.75171355904200 262.73840378329720 1.0686763078675194 
-80.698203091781295 -67.412026231703109 103.99879311503389 -80.698203091781338 -67.412026231703081 103.99879311503395 140.65969312499018 3.2380268114202424e-06 6.4517670396660840e-06 -4.5771317509657920e-06 0.0000000000000000 -3.1991138904619025e-09 1.2253931203076715e-10 -4.1933807963800973e-06 0.0030828798158756311 -4.5630730884925060e-11 6.1320550048912129e-11 2.4967235531114784e-10 0.0000000000000000 -79.662532843379708 -67.531450170133141 108.61547480962874 295.38956150422752 0.0000000000000000 0.0000000000000000 0.0000000000000000 0.0000000000000000 3.1451730141871557 3.2952432206581936 1.1501178192508730 1.0723680804277236 304.26699054218801 304.26658748431032 1.0724321418610396 
-95.683609927792261 -81.844506663603156 104.01016004503077 -95.683609927792247 -81.844506663603156 104.01016004503073 153.96618528132268 8.8148905378944922e-06 1.1203509960607806e-05 -6.4766293455834642e-06 0.0000000000000000 -3.7246993545014817e-09 -5.1307846860026984e-12 -4.1928961920234542e-06 0.0030644959088525275 -5.7564586462410458e-11 -5.2327221402997398e-12 1.8238727568766222e-10 0.0000000000000000 -94.477787882002133 -81.839503548705352 108.62630821647583 293.80807890400462 0.0000000000000000 0.0000000000000000 0.0000000000000000 0.0000000000000000 3.1465270193402066 3.2981601904229998 1.1516839381524775 1.0728569435428552 279.15569570938175 279.22809061088986 1.0731599417275388 
-47.862000600291090 -126.39670757145220 135.47934721442545 -47.862000600291118 -126.39670757145221 135.47934721442550 55.936579377492286 8.5705071481746476e-06 -1.0050027790792344e-05 -1.5440849025085833e-05 0.0000000000000000 1.0371081282994721e-06 -3.1290796777469490e-07 8.9761149098816712e-07 0.0027384125142127522 6.7473974178885660e-11 -2.2066924887347795e-12 3.5258348761796750e-10 0.0000000000000000 -47.292355390977058 -125.96433165720771 138.67232254046354 244.31333887135355 0.0000000000000000 0.0000000000000000 0.0000000000000000 0.0000000000000000 3.1290658484020177 3.2609102060583797 1.1318604999262485 1.0639311665173965 393.37252143281637 393.37381681216482 1.0638889801091085 
-34.677168459034505 -140.93825181496746 136.09473575924397 -34.677168459034526 -140.93825181496743 136.09473575924400 55.919068664561173 -7.8050967276035700e-06 6.5443075197911712e-06 -3.5531440808407896e-06 0.0000000000000000 4.7488753548018810e-07 1.3717732705550448e-08 -1.5745637653600700e-06 0.0024691640084865316 5.4137424749278642e-12 3.3258465504419432e-11 2.9119251499373787e-10 0.0000000000000000 -34.196989160350306 -140.43319657724166 139.21506628885933 210.16870282748488 0.0000000000000000 0.0000000000000000 0.0000000000000000 0.0000000000000000 3.1317246802169283 3.2666830934801827 1.1349803525584219 1.0654424365871282 398.31904415550775 398.29542126200056 1.0653560744079156 
-31.424421015156732 -128.04444363276349 139.79196503070233 -31.424421015156749 -128.04444363276346 139.79196503070227 60.182965716284400 -5.1061459967496044e-06 -7.2313795347232488e-06 -1.7669082894428456e-06 0.0000000000000000 -1.4709187479144958e-09 -4.1383729776356399e-10 -2.6674155506611896e-06 0.0023494067974812404 1.6690028961971650e-10 2.6971611950939087e-12 1.7192681045294862e-10 0.0000000000000000 -30.948229910445860 -127.64113600963313 142.72864290474456 229.21992526850030 0.0000000000000000 0.0000000000000000 0.0000000000000000 0.0000000000000000 3.1333265182777548 3.2700723853964324 1.1367696674350070 1.0662732207761523 400.11968798666982 400.11733514360873 1.0661901329672043 
-48.990412216788563 -131.37530418034763 144.08403485021557 -48.990412216788556 -131.37530418034760 144.08403485021560 56.447057747039544 -6.3814322216291139e-07 -1.2050518321842832e-05 8.8188458164186294e-06 0.0000000000000000 1.0231191158843587e-06 -4.4991893063710296e-07 7.4029538728133482e-07 0.0024148545770702910 3.3918639109878951e-11 -1.9150161516045941e-10 4.5661153401954546e-10 0.0000000000000000 -48.406431667502837 -130.90513559487593 146.85896726379221 225.63426853136377 0.0000000000000000 0.0000000000000000 0.0000000000000000 0.0000000000000000 3.1275730608275207 3.2579611051680497 1.1304050825418377 1.0638065027430152 389.39155163466233 389.39251930350116 1.0632058484637594 
-53.725964443522436 -85.006875190495691 71.670064137445721 -53.725964443522422 -85.006875190495720 71.670064137445721 146.14647401819764 1.2331795479098639e-05 -7.5110749801846975e-06 0.00013224313383793443 0.0000000000000000 2.0617091690712974e-07 2.7068901250113802e-06 -4.5928432786865032e-06 0.0048989231243766829 1.0520076875711475e-09 7.4420433779842972e-09 -1.8956401860000218e-09 0.0000000000000000 -53.009977022357148 -84.940192361847963 77.707205907375524 356.07450292316213 0.0000000000000000 0.0000000000000000 0.0000000000000000 0.0000000000000000 3.1471614499719980 3.2992009253523755 1.1520861670230469 1.0726009037394657 317.41029004850293 317.41258430305356 1.0733441648076896 
-40.881230872655102 -85.698437625485639 60.874771251086145 -40.881230872655117 -85.698437625485624 60.874771251086194 167.05001147728518 1.6608812605901829e-05 -7.3088691782739281e-06 1.5697292793775521e-05 0.0000000000000000 -3.0688056352956292e-07 2.9777717501562853e-07 -6.2925092254187767e-06 0.0040545195107128560 -2.4047413812542772e-10 1.8142884039586322e-10 -8.1145553595671479e-10 0.0000000000000000 -40.313282635619565 -85.652866469445740 67.489144002613742 334.72004880612383 0.0000000000000000 0.0000000000000000 0.0000000000000000 0.0000000000000000 3.1453712957009929 3.2952195200350762 1.1498872707187535 1.0718594590116419 264.27290106300296 264.27951207125074 1.0723261026923157 
-43.541845355352550 -94.243104219997605 77.484282766265650 -43.541845355352535 -94.243104219997633 77.484282766265608 125.77424339695413 -2.5986047544804233e-05 -8.5308004164001785e-06 2.9950260467295928e-05 0.0000000000000000 5.3985170902404182e-07 5.8807820921194593e-07 -3.0209369257588680e-06 0.0047909211053708337 2.1118316250001578e-09 9.5950603033719676e-11 3.1360377716868091e-09 0.0000000000000000 -42.930125987095458 -94.071309017270835 83.274511392489799 283.94561953274422 0.0000000000000000 0.0000000000000000 0.0000000000000000 0.0000000000000000 3.1469234905434487 3.2987561509358168 1.1518789332360377 1.0723217183644500 331.67944873059582 331.68054202881467 1.0732547707498827 
-45.583293322576907 -99.123689632379524 61.399415251909375 -45.583293322576914 -99.123689632379453 61.399415251909417 165.07950517603598 5.5868838476675381e-05 -4.6338554030759349e-05 1.7019499731510839e-05 0.0000000000000000 -1.9675147344688781e-09 -1.5800294406176363e-10 -6.0095140472782305e-06 0.0045587905256861587 -8.5891715024157933e-10 2.4152725184531629e-09 -3.3400665797693201e-09 0.0000000000000000 -44.946335306532468 -98.969717126470769 68.015559797458934 339.42980011114588 0.0000000000000000 0.0000000000000000 0.0000000000000000 0.0000000000000000 3.1469091156484135 3.2984680377177722 1.1516001765442612 1.0724647117019515 247.58533386057323 247.58112376243483 1.0731250326288135 
-36.202686613693345 -101.02781911710944 69.134150744108737 -36.202686613693345 -101.02781911710946 69.134150744108695 133.28665049552811 3.7031022383226006e-06 -1.0750457664902448e-05 1.5725691103847991e-05 0.0000000000000000 6.0242533884279456e-07 1.9337213678268993e-08 -5.1312358757373218e-06 0.0046690493740095280 1.6528719509867707e-09 -3.1590540049566635e-10 2.3225121670910720e-10 0.0000000000000000 -35.672109309640206 -100.83293553867907 75.360366609178811 338.44965823895870 0.0000000000000000 0.0000000000000000 0.0000000000000000 0.0000000000000000 3.1467202042229356 3.2980487941540284 1.1513686813129820 1.0723192289095611 327.93767383690289 327.93667572241708 1.0730176422476643 
-49.659029015335541 -112.25929557940383 58.637357263713781 -49.659029015335548 -112.25929557940383 58.637357263713774 140.65363866027710 1.1936692879560924e-05 -3.9058929159589450e-05 3.2117771088429061e-05 142.12389512757156 -2.1104662739634957e-09 -2.7420199444350151e-10 -6.1272684774849040e-06 0.0049108028413956586 1.0490339099672925e-09 9.5961477903839732e-10 -1.4751305637523846e-09 0.0059225417173025272 -48.975793059600008 -111.99207679200002 65.383142959360015 326.57209562220959 0.0000000000000000 0.0000000000000000 0.0000000000000000 0.0000000000000000 3.1405655296592441 3.2855748591692593 1.1450493125757044 1.0710882831125381 290.65761167786189 290.65444301795100 1.0700679285414803 
-25.650164164934289 -110.73595693583749 60.826627187520529 -25.650164164934274 -110.73595693583741 60.826627187520501 130.23031665810544 1.0739591001474111e-06 -1.3359316744038921e-05 1.4630829067058458e-05 0.0000000000000000 -1.2683963601656245e-09 -2.6073210257493434e-10 -6.0339336407366773e-06 0.0042357692514035927 1.4858932544948764e-10 -1.8778827173483902e-10 -8.8834041796500437e-11 0.0000000000000000 -25.239536857883341 -110.48187134057846 67.469656361758609 349.35568362690350 0.0000000000000000 0.0000000000000000 0.0000000000000000 0.0000000000000000 3.1428329483929467 3.2902026300850196 1.1474106226983900 1.0711411981751564 315.46639161611887 315.46700753157523 1.0711715432704778 
-44.702813354274078 -111.52952879792544 70.251754724143950 -44.702813354274078 -111.52952879792551 70.251754724143908 115.96464257873171 -4.3785806299604971e-06 -8.4491027998162397e-06 -2.6640850458773189e-06 0.0000000000000000 -1.9366352133065590e-09 -2.6774682471142341e-10 -5.6321135168957426e-06 0.0048702793642533245 6.8399956008916182e-10 -9.2473449370646813e-10 2.3285286500765080e-09 0.0000000000000000 -44.075852747763513 -111.26860156453857 76.452402029906395 268.59635586333832 0.0000000000000000 0.0000000000000000 0.0000000000000000 0.0000000000000000 3.1411968005513704 3.2865191456702303 1.1453539268237736 1.0722462752737587 334.35389900644969 334.35379009343808 1.0702091049130511 
-58.951317205721033 -106.97299638799453 100.58002534250673 -58.951317205721061 -106.97299638799451 100.58002534250677 50.395604935858287 -1.5556673376163384e-05 -4.8574570242498050e-05 -8.5494087151543322e-06 0.0000000000000000 2.7608904359855838e-07 1.2130559190570711e-06 -6.6669460480811519e-07 0.0038931499611074903 -2.9987036741154756e-10 -3.3696980978276744e-10 1.0912997791310296e-09 0.0000000000000000 -58.254647241440821 -106.62760994408018 105.33920711112118 241.62621693813244 0.0000000000000000 0.0000000000000000 0.0000000000000000 0.0000000000000000 3.1243629894749083 3.2516664496261289 1.1273217121387191 1.0627294939710679 392.35255960604258 392.35120901811217 1.0617533288380370 
-65.155524411945422 -90.278626919579153 91.544503663765525 -65.155524411945422 -90.278626919579196 91.544503663765511 100.25411886832653 2.3506652440089722e-05 -3.1330136517025027e-05 -1.7855594805477046e-05 0.0000000000000000 -3.2162470816377278e-07 8.0706573159840809e-07 -2.3296917877384529e-06 0.0037446786347051513 1.5161926835444886e-11 5.4183060164692452e-10 -1.7957504129003207e-09 0.0000000000000000 -64.370648572599308 -90.090304358695661 96.688480747766732 239.98138923263960 0.0000000000000000 0.0000000000000000 0.0000000000000000 0.0000000000000000 3.1380407505936194 3.2802664563373298 1.1422605664894394 1.0701122117675310 356.64196365295089 356.62832022852314 1.0687606943172989 
-76.794167717005536 -99.952598037358570 96.391960400245679 -76.794167717005578 -99.952598037358598 96.391960400245694 89.328706145932472 4.3193180479744374e-05 -4.8592436703971479e-05 7.8240438675282334e-06 0.0000000000000000 -2.2670338810431263e-07 9.8918526235334307e-07 -2.0525862568879173e-06 0.0038650446346649280 1.4743223093730310e-10 -2.0594446131756766e-10 1.0180289637284212e-09 0.0000000000000000 -75.913673002404863 -99.702254402691466 101.32606574872912 288.13617662859207 0.0000000000000000 0.0000000000000000 0.0000000000000000 0.0000000000000000 3.1342406735894310 3.2724337107679231 1.1382227021456126 1.0680463332616705 360.03214893659970 360.04911617066495 1.0668754749702742 
-55.845948096425154 -93.820063184269912 98.485531426163917 -55.845948096425154 -93.820063184269941 98.485531426163959 90.176220723103739 2.6575737687181835e-06 -1.6206263145066677e-05 -3.6216126816007093e-06 0.0000000000000000 1.2529253372248960e-09 6.8727229736458475e-07 -1.0145264589381248e-06 0.0037743217708884158 5.5407519897723746e-11 2.0518345303498827e-10 5.4654702066097470e-10 0.0000000000000000 -55.164710769962618 -93.586508083202432 103.32606452766413 222.68531933077850 0.0000000000000000 0.0000000000000000 0.0000000000000000 0.0000000000000000 3.1361167300316923 3.2765950055097433 1.1405187111995649 1.0681309702865944 352.67779525782055 352.67906929084995 1.0679534847052325 
-46.409112603054353 -176.71874974672846 153.34878602097550 -46.409112603054375 -176.71874974672846 153.34878602097555 58.955165993748530 1.7558900276589314e-05 2.6583035824535205e-05 -4.4824526273062628e-05 0.0000000000000000 -1.9964817854489780e-09 -8.4446150072636783e-10 -2.0894495360579413e-06 0.0022530878376717384 -5.1371875529052353e-11 -2.0910116420730201e-10 2.2162602031887406e-10 0.0000000000000000 -45.762777822239421 -175.89580528354742 155.64915507299250 248.91339099022119 0.0000000000000000 0.0000000000000000 0.0000000000000000 0.0000000000000000 3.1320419942096529 3.2679717686956584 1.1359623047358307 1.0673580222891741 416.12449810411101 416.15440786358511 1.0658129410405204 
-52.146980855755338 -186.46982301645951 166.46916883891177 -52.146980855755338 -186.46982301645951 166.46916883891180 73.622667646676874 2.2751707132087002e-06 7.2409407946503516e-07 -8.7182352289972597e-07 75.086855688364594 -2.1977260289407496e-09 -9.3072027862461926e-10 -1.5300901168302516e-06 0.0020020759420794074 -6.9847122877802354e-12 7.6810887665310032e-11 7.8275666378596449e-11 0.0019956325357226479 -51.435495451599998 -185.56281141599996 168.15371392000000 294.81703600272857 0.0000000000000000 0.0000000000000000 0.0000000000000000 0.0000000000000000 3.1424412593132378 3.2894275947333349 1.1470274509748015 1.0704550541361113 410.78227148375299 410.77230873879677 1.0709951643232605 
-43.277530630140639 -171.97077209158320 164.48396343475812 -43.277530630140646 -171.97077209158317 164.48396343475812 71.346683628763429 1.5008345571433137e-06 -1.8890527419923398e-06 -1.9121109472565540e-05 0.0000000000000000 4.8416881363816150e-08 -3.9291878274029888e-07 -1.2889936444625553e-06 0.0020469478498093660 -7.2052780004581135e-11 -8.3278594592076067e-11 1.7069904276498381e-10 0.0000000000000000 -42.672974891599750 -171.18173466392949 166.26923354793541 271.88244999766295 0.0000000000000000 0.0000000000000000 0.0000000000000000 0.0000000000000000 3.1413385223095527 3.2870968547500561 1.1457971138842111 1.0698346472442004 411.20486032086711 411.20089496486742 1.0704195027505394 
-60.185493615960738 -178.85877772943974 155.55373966979209 -60.185493615960709 -178.85877772943971 155.55373966979201 81.234127369360976 2.3633363143634062e-05 3.9776876094500120e-06 1.2174900398558274e-06 0.0000000000000000 -2.4796635023083265e-09 -8.6338103333361015e-10 -1.9954460555027254e-06 0.0021779841293091294 3.8869576138173831e-11 -1.2048284982597700e-10 1.4913091717903506e-10 0.0000000000000000 -59.382734921100123 -178.01738339707751 157.75061606229067 243.94852352315442 0.0000000000000000 0.0000000000000000 0.0000000000000000 0.0000000000000000 3.1417177635577653 3.2879889844920309 1.1463125282364530 1.0699503466381406 391.49072907868680 391.48836662850232 1.0706612244958480 
-31.113531866929613 -102.96175171624174 90.103823915744684 -31.113531866929623 -102.96175171624174 90.103823915744684 71.012595299437450 -2.1801986011146202e-05 -1.6294481249809765e-05 6.4789478998965281e-05 0.0000000000000000 -3.0712000915386697e-08 2.1964899794580421e-07 -3.4724106584406163e-06 0.0041340915519384484 -1.6208770267700027e-10 1.3316814821167375e-09 -2.3915713990833113e-10 0.0000000000000000 -30.660097366607719 -102.72526557899965 95.328291536857705 204.58703120518373 0.0000000000000000 0.0000000000000000 0.0000000000000000 0.0000000000000000 3.1350641041648770 3.2741238697998933 1.1390916298529445 1.0677581057560259 389.34914557383109 389.34946808137175 1.0672800535543698 
-19.140939871445024 -111.16372464954462 87.985760310400991 -19.140939871445021 -111.16372464954465 87.985760310401005 84.545929206298283 -4.0194209562946881e-06 -4.7131956491009458e-06 3.5971605619928872e-05 0.0000000000000000 -1.0400963423862208e-09 -2.6451285606299280e-10 -4.8760621567112147e-06 0.0040078215156241171 8.4420136267720603e-10 2.8697879129351365e-11 -1.6880625965970492e-10 0.0000000000000000 -18.804221549666405 -110.90595113131390 93.354036648627854 267.24800799435923 0.0000000000000000 0.0000000000000000 0.0000000000000000 0.0000000000000000 3.1404064135111587 3.2851794881972394 1.1448112605443732 1.0698958005303298 377.13716981352246 377.13709045600069 1.0699606532494981 
-34.315668898969186 -104.95446564373376 79.282144000945863 -34.315668898969186 -104.95446564373377 79.282144000945863 104.35058952400945 9.0720434832716968e-06 -1.7201626627603471e-05 3.0092843917633183e-05 0.0000000000000000 -1.0852984438609291e-07 3.2951828248237624e-08 -4.2031177503612501e-06 0.0041535949259930210 -3.5220732151754542e-10 -3.5559309975755711e-11 -1.1007188056299464e-10 0.0000000000000000 -33.815892125380543 -104.71065599625929 85.007910193808286 270.69679205096202 0.0000000000000000 0.0000000000000000 0.0000000000000000 0.0000000000000000 3.1461822227483940 3.2968839393393656 1.1507399396090705 1.0715444096344104 362.66951125505068 362.66979707807155 1.0727233329665185 
-19.259245343503796 -100.54591511249653 90.130451832339858 -19.259245343503792 -100.54591511249652 90.130451832339816 80.670668440425089 1.0781915357229183e-05 -1.3197106787473134e-05 2.4417377911273289e-05 0.0000000000000000 -1.0442453568515473e-09 -1.7058510159984053e-10 -4.7846278334873205e-06 0.0038111876765881173 4.7178145701174406e-10 2.0571798958773404e-10 9.1602638221580461e-11 0.0000000000000000 -18.921183722278450 -100.37968114352928 95.398064000337470 185.31956687594098 0.0000000000000000 0.0000000000000000 0.0000000000000000 0.0000000000000000 3.1403272899397838 3.2852281840386515 1.1449442466583963 1.0700738118743105 387.98905305697184 387.98901876577588 1.0700237928036280 
-31.607781616945658 -118.32023070727102 171.73198711176818 -31.607781616945658 -118.32023070727107 171.73198711176823 99.396182751328496 -2.2162495034996023e-05 -3.8557804081867857e-06 -3.6798907330387339e-05 0.0000000000000000 5.0463473795770756e-07 7.1818787969113660e-08 -9.5671359709998268e-07 0.0022424499727502953 1.6286694624184950e-10 1.5889450821968526e-10 2.5486539705813748e-10 0.0000000000000000 -31.124431206993112 -117.97934695114738 173.21200361760444 258.17126679857051 0.0000000000000000 0.0000000000000000 0.0000000000000000 0.0000000000000000 3.1402995001857614 3.2849772314893833 1.1447155247727387 1.0695580665193938 357.18868665393956 357.13504873747320 1.0699145703983428 
-31.111493367008553 -133.59881875541319 162.93806630561289 -31.111493367008535 -133.59881875541313 162.93806630561275 76.408665706953116 -3.4954168550668320e-05 9.1291490659738388e-06 -3.7114079088299970e-06 0.0000000000000000 5.7333251123600579e-07 -1.4011909591110886e-07 -1.3817791209848278e-06 0.0021473522355515890 4.3230884564029508e-10 -1.7834156541256628e-10 1.9138533616754486e-12 0.0000000000000000 -30.642131568542830 -133.13454878399213 164.80820313575899 262.24283076768535 0.0000000000000000 0.0000000000000000 0.0000000000000000 0.0000000000000000 3.1367496083527864 3.2774624613731485 1.1407448126435777 1.0677280528868185 384.44804068014474 384.46817014375893 1.0680543776000420 
-43.252024842030529 -120.51419332367669 161.72361043014135 -43.252024842030544 -120.51419332367672 161.72361043014141 58.657727618870474 -3.7877375930949195e-05 -3.5204270101348992e-05 -1.5134912238998841e-05 0.0000000000000000 8.7498103029131570e-07 9.1917784013658168e-08 -5.3349192262080207e-07 0.0025096002403068563 3.3135532347271614e-10 6.5451590360414801e-10 -1.4147711121206581e-09 0.0000000000000000 -42.676694985445003 -120.10595080876966 163.70375490782192 268.28772502602959 0.0000000000000000 0.0000000000000000 0.0000000000000000 0.0000000000000000 3.1225372346037119 3.2479590638633065 1.1254397995168892 1.0637070735708167 390.17665944055193 390.18799393476490 1.0608725469198068 
-24.140812704721359 -114.52068238767379 159.81594797517863 -24.140812704721373 -114.52068238767379 159.81594797517855 88.948612007979563 -1.1164072923368235e-05 -6.5585338374708535e-06 -1.2191380368116504e-05 0.0000000000000000 -1.2154603712399849e-09 -2.9420998970408618e-10 -1.8137359312220269e-06 0.0021215772929962027 7.1996617899070248e-11 -1.1423940761529141e-10 9.0373015360376675e-11 0.0000000000000000 -23.747323328369049 -114.23396745764113 161.81277151251504 321.01516800445251 0.0000000000000000 0.0000000000000000 0.0000000000000000 0.0000000000000000 3.1406107112979944 3.2855910061792639 1.1450184696805608 1.0694958373887185 377.25489148003891 377.25931363731610 1.0700572244780808 
-6.6584336978042025 -105.19385814398859 104.75008052803575 -6.6584336978041998 -105.19385814398858 104.75008052803577 47.699439136759253 -2.5248317527024998e-06 4.7513519772859953e-06 2.5645867440923659e-05 42.560860051483374 -6.0229607412587427e-10 -2.1169965780387659e-10 -4.1613512760108043e-06 0.0028638545737283152 -3.8750275689331318e-11 2.6298219393778764e-11 7.1894931144419098e-10 0.0025897657801203537 -6.4634479885999987 -104.98755276399999 109.33149947120000 327.67017865987640 0.0000000000000000 0.0000000000000000 0.0000000000000000 0.0000000000000000 3.1416251361761174 3.2876742831366950 1.1460885547102393 1.0699660862738090 454.68820779116709 454.68822619724239 1.0705566694083386 
-12.063192475106913 -97.254740231927258 96.467510077019398 -12.063192475106915 -97.254740231927258 96.467510077019384 70.904041667593958 9.9482104529720712e-06 -1.1972497328585962e-05 1.6775744770563866e-05 63.553872457846737 -7.9185832890793527e-10 -1.4146384064162021e-10 -4.5144609188696450e-06 0.0034464532619443884 1.2253530326107232e-10 -1.1311175910085715e-10 5.6237710426866274e-10 0.0033826883210802674 -11.806838433999999 -97.116880539599975 101.43768333439998 212.90238721710071 0.0000000000000000 0.0000000000000000 0.0000000000000000 0.0000000000000000 3.1425114469379163 3.2896784352407940 1.1472103707650445 1.0705278343117253 420.12683524179931 420.12675112913314 1.0710799671667404 
-16.152389466518869 -110.61312945169364 98.208992389357746 -16.152389466518859 -110.61312945169361 98.208992389357732 57.092785760715806 -2.0550629730378572e-05 2.0201589742564585e-06 2.4024264720100440e-05 0.0000000000000000 -9.3528007560905714e-10 -2.5963942107409816e-10 -4.4402165499946022e-06 0.0032951469632812309 -2.1066627336604517e-10 8.9423029937679105e-11 1.1141146675964149e-09 0.0000000000000000 -15.849604639409371 -110.36010279166017 103.09742667861765 236.22178992679409 0.0000000000000000 0.0000000000000000 0.0000000000000000 0.0000000000000000 3.1411138466749970 3.2865797151853204 1.1455041168594062 1.0696617195988738 432.07590972246419 432.07594404471149 1.0702823792349714 
-24.143093932947981 -99.693093983926005 97.353247012277279 -24.143093932947981 -99.693093983925976 97.353247012277279 66.271751074935679 -1.0439889315720862e-05 -3.2455417242639914e-05 2.7945713569310906e-05 0.0000000000000000 -1.2155382533851622e-09 -1.6303414174245742e-10 -4.4766994236056235e-06 0.0034900489853486511 5.6116596770996875e-10 -4.3745953840836608e-10 1.1999870070206828e-09 0.0000000000000000 -23.749578654390465 -99.534212460059550 102.28184693721489 211.57004919854941 0.0000000000000000 0.0000000000000000 0.0000000000000000 0.0000000000000000 3.1379452016673350 3.2798673288524092 1.1419528211378147 1.0687661359595946 409.20003216119562 409.20004887336358 1.0686210706370682 
-54.720357200803583 -108.72536658257732 109.47398177750927 -54.720357200803598 -108.72536658257737 109.47398177750932 27.877202372251585 -5.1349526249439742e-06 -4.4585238085588849e-05 3.2501181244138173e-05 0.0000000000000000 5.5037697385304314e-07 9.9814997413738349e-07 -3.1556336514772443e-07 0.0039632807132835351 -1.6057337244426554e-09 8.6855637430985161e-10 -2.4746180158752016e-09 0.0000000000000000 -54.087034329299712 -108.37170302860723 113.84396407125838 191.01171882188567 0.0000000000000000 0.0000000000000000 0.0000000000000000 0.0000000000000000 3.1179317742490142 3.2384278874128825 1.1205091220865340 1.0598627762629722 416.84581008097126 416.84558790557099 1.0585416098780340 
-42.202910181279876 -108.08597578157392 106.47875512085641 -42.202910181279869 -108.08597578157388 106.47875512085645 38.918137038473709 1.2268415506776094e-05 -3.6808860143345259e-05 1.7104121901528070e-06 0.0000000000000000 7.9628601503704095e-07 2.9812721644606030e-07 -9.9340971889274412e-07 0.0033077598630915795 6.3124656784542300e-10 -5.8867320110905159e-10 -5.0392164404102505e-10 0.0000000000000000 -41.690910404717421 -107.74885629568415 110.97670241767709 270.34727434602189 0.0000000000000000 0.0000000000000000 0.0000000000000000 0.0000000000000000 3.1248390812361597 3.2529601943514312 1.1281440485607570 1.0624004033435948 406.87767845203945 406.87782959407576 1.0621412276965996 