# For a description of the Tecplot format see the Tecplot User's guide.
#
Variables=x,y,z,s_u,s_v,s_w,s_p,mono_f_vel_u,mono_f_vel_v,mono_f_vel_w,const,u_nu,v_nu,w_nu,p_nu,x_nu,y_nu,z_nu,const,u_ref,v_ref,w_ref,vol_ref,x_ref,y_ref,z_ref,const,I1,I2,I3,J,p1,p2,p3
Zone f=fepoint, n=1339, e=6475, et=brick, c=black
-58.8463 -70.4523 176.075 -58.846336673824339 -70.452256323422958 176.07491054104369 -59.670649226748786 -1.4189252138620644e-09 -1.6135765324112730e-07 5.6123904317829015e-07 -60.065347156894092 1.2987724125335109e-09 -6.7304606332641002e-11 1.4320760843844482e-07 9.5167521206941842e-05 1.8104209961951351e-13 -2.6194875629762130e-13 9.9378059719733823e-14 9.5419577685836046e-05 -58.668039002000000 -70.473359259200009 176.35421013599998 215.13583165143561 0.0000000000000000 0.0000000000000000 0.0000000000000000 0.0000000000000000 3.0311088152796146 3.0624436735088234 1.0313353356210009 1.0153269097671780 223.81104756705327 223.81104777752947 1.0155470532114543 
-65.157644707870944 -76.405203526180770 183.82759113546513 -65.157644707870958 -76.405203526180770 183.82759113546507 -62.114496913773124 -1.4027071610937017e-06 -2.3460628799690688e-06 2.5079831099836585e-06 -62.108987901648320 1.4169520452800288e-09 -3.0246943838463380e-11 1.0096763602973623e-07 9.5230470393222131e-05 1.5172365843550114e-12 -4.4670953227019082e-13 -4.9188221549763507e-13 9.6149373820035924e-05 -64.963123215600007 -76.414687385200040 184.02450960799996 253.42820447565578 0.0000000000000000 0.0000000000000000 0.0000000000000000 0.0000000000000000 3.0316763606013533 3.0635902733787850 1.0319144356842354 1.0153269097671775 230.17894880922998 230.17894907336446 1.0158324301907375 
-69.870228247421110 -71.565215596722140 176.96685057886054 -69.870228247421110 -71.565215596722155 176.96685057886052 -60.336803257614577 -1.1635871587342261e-06 -4.0454501160255696e-07 2.1259323194050517e-07 -61.407114253126934 1.5051963182799442e-09 -6.0377286503765491e-11 1.3834791978695193e-07 9.5514666204836584e-05 7.5671103099257477e-13 3.2959713486417605e-14 2.0969997816254879e-13 9.5882048952135071e-05 -69.663592608799988 -71.584146237200002 177.23667228800005 218.29881668600640 0.0000000000000000 0.0000000000000000 0.0000000000000000 0.0000000000000000 3.0319852326794177 3.0642110338801660 1.0322263331119435 1.0153269097671764 228.24920616780085 228.24920477435066 1.0159861728452488 
-57.339429304621298 -87.739412792114393 171.34123844999104 -57.339429304621277 -87.739412792114351 171.34123844999095 -56.722092433126498 -1.6220252406180782e-06 2.3569309070873514e-06 6.0827757345102669e-06 0.0000000000000000 1.2705576209193215e-09 4.0316278093754931e-11 1.6899870258768599e-07 9.4832455292991801e-05 1.1632394747264226e-12 -1.1318561260887700e-12 3.4755000133407428e-13 0.0000000000000000 -57.165005282198301 -87.726774323660578 171.67083873969227 259.76550921814646 0.0000000000000000 0.0000000000000000 0.0000000000000000 0.0000000000000000 3.0284157061577548 3.0570026804580279 1.0285872214122560 1.0144578007022858 208.66712701707903 208.66712668957999 1.0141924845299071 
-89.154552569164096 -83.382056074243295 116.19735292309775 -89.154552569164082 -83.382056074243323 116.19735292309771 -51.850021921893273 -4.4460930638016525e-07 4.0523146577066231e-06 -1.9159197251878952e-06 0.0000000000000000 1.8662882801667724e-09 1.3177264834851599e-11 4.6944644438440264e-07 0.00010607466790919533 -2.5935187915145649e-12 -2.3986999176944533e-12 2.3920627998326367e-12 0.0000000000000000 -88.898344731952406 -83.377922378373768 117.11292023788836 283.91631954144174 0.0000000000000000 0.0000000000000000 0.0000000000000000 0.0000000000000000 3.0285572263326079 3.0572624947517451 1.0287054368008226 1.0145112673428374 200.10535699857058 200.10533664749357 1.0142509561430242 
-97.874315609417664 -66.873612831879583 107.20907331098732 -97.874315609417650 -66.873612831879569 107.20907331098736 -58.648600763757898 -1.5037870490567090e-09 1.3597182531787774e-06 -8.1749453137616967e-06 -59.853173109219831 2.0295640341949635e-09 -8.9579538231632228e-11 5.1841846726574659e-07 0.00011163777385222013 -6.1664905573280549e-13 -1.2487466035922767e-12 7.8949848812170676e-12 0.00011127650842235260 -97.595692787999965 -66.901700632800015 108.22015140479995 322.25788568967050 0.0000000000000000 0.0000000000000000 0.0000000000000000 0.0000000000000000 3.0315874475253035 3.0634182392608453 1.0318313344588852 1.0153269097671780 223.62824071829411 223.62914493361831 1.0157914821346312 
-79.894937956326785 -67.504593930247097 107.60864259773089 -79.894937956326828 -67.504593930247140 107.60864259773093 -57.448738625692044 -2.1428385880825318e-06 1.9340856760529395e-06 -3.7467580135002948e-06 0.0000000000000000 1.6929043618330029e-09 -8.5650542214210632e-11 5.1624145225304129e-07 0.00011093426134649348 2.2083560397297815e-12 1.2174175569575034e-13 7.0744737601676326e-12 0.0000000000000000 -79.662532843379708 -67.531450170133141 108.61547480962874 295.38956150422752 0.0000000000000000 0.0000000000000000 0.0000000000000000 0.0000000000000000 3.0294714085337962 3.0591338322319364 1.0296627690088489 1.0147697806717559 213.82365037119953 213.82326345287683 1.0147226262509943 
-94.748375174799648 -81.840628656917644 107.61959235834209 -94.748375174799605 -81.840628656917659 107.61959235834213 -56.639240248678455 -3.0550593526355806e-06 2.5663979511349332e-06 -6.1087474403986702e-06 0.0000000000000000 1.9710379890736096e-09 3.5882130600128899e-12 5.1618178886769783e-07 0.00011267241439281373 4.0739799974364909e-12 1.7692862479273011e-12 1.1389798453572461e-11 0.0000000000000000 -94.477787882002133 -81.839503548705352 108.62630821647583 293.80807890400462 0.0000000000000000 0.0000000000000000 0.0000000000000000 0.0000000000000000 3.0294295491855063 3.0590389973977206 1.0296097514268618 1.0147437543735989 210.98900875424533 210.98967168447868 1.0146964620462420 
-47.464166680135158 -126.04336926086566 138.01094065722009 -47.464166680135136 -126.04336926086572 138.01094065722009 -30.459887608979983 6.9114813896640613e-08 1.8068927496520456e-06 5.7421739504283840e-06 0.0000000000000000 4.2903148627217195e-08 -1.7108381789753429e-08 3.9606855706118244e-07 9.2983244295623811e-05 -2.0188235319839498e-13 -9.0341456076863150e-13 3.6446235674819234e-12 0.0000000000000000 -47.292355390977058 -125.96433165720771 138.67232254046354 244.31333887135355 0.0000000000000000 0.0000000000000000 0.0000000000000000 0.0000000000000000 3.0338044747934849 3.0679185132606550 1.0341148857629792 1.0170170285242119 183.24012893852640 183.24013829198552 1.0169143626804524 
-34.321047799977400 -140.55174182854435 138.54227841637243 -34.321047799977379 -140.55174182854441 138.54227841637245 -30.495099334445609 3.0382804156300460e-06 -6.1213624583024148e-07 2.8807396715111020e-06 0.0000000000000000 1.6880343055057307e-08 3.9550469652254106e-10 3.6483498338261848e-07 8.8532834431994325e-05 -4.7632538315255068e-12 2.3521457603084711e-13 6.6758136649704788e-12 0.0000000000000000 -34.196989160350306 -140.43319657724166 139.21506628885933 210.16870282748488 0.0000000000000000 0.0000000000000000 0.0000000000000000 0.0000000000000000 3.0332026524633253 3.0666933996310206 1.0334914583686581 1.0166282146480745 181.34768521168556 181.34769599278539 1.0166079474245431 
-31.055087520428877 -127.73183245137713 142.08819548489865 -31.055087520428870 -127.73183245137713 142.08819548489862 -33.459941026134516 2.1394742977322967e-06 9.9258872901017977e-07 5.6307460092021000e-06 0.0000000000000000 7.7838207060421105e-10 2.8927385486987589e-10 3.2838194030659906e-07 8.8973164385544365e-05 -7.2905554603082430e-13 -1.1878115497767524e-12 7.0128641990366715e-12 0.0000000000000000 -30.948229910445860 -127.64113600963313 142.72864290474456 229.21992526850030 0.0000000000000000 0.0000000000000000 0.0000000000000000 0.0000000000000000 3.0322221754296526 3.0647050694891078 1.0324834974289490 1.0162305850320199 182.92406541504707 182.92406060624336 1.0161118348836735 
-48.579588382452080 -130.99471214567518 146.28097165040327 -48.579588382452101 -130.99471214567527 146.28097165040333 -31.552809799245782 1.9547865604857724e-06 5.7122418016320768e-06 -1.3024185711933765e-06 0.0000000000000000 4.0066566508055329e-08 -1.8776085887369453e-08 3.4590371523285319e-07 8.7058061849811018e-05 -8.6215069870211981e-13 -8.7339353392538628e-12 8.5353580596167139e-12 0.0000000000000000 -48.406431667502837 -130.90513559487593 146.85896726379221 225.63426853136377 0.0000000000000000 0.0000000000000000 0.0000000000000000 0.0000000000000000 3.0340894140835668 3.0684876789805369 1.0343990819414659 1.0169561403435490 184.72410797855233 184.72412331188923 1.0170541010214758 
-53.174380241862664 -84.927071638902973 76.332026791215654 -53.174380241862686 -84.927071638902987 76.332026791215654 -55.756926004317769 -1.6211499774896326e-06 1.5014881111740250e-05 -2.9498333417417794e-05 0.0000000000000000 1.3643260914431937e-09 1.6645731355738435e-08 7.5745998468422395e-07 0.00015018555429689853 7.7787471026472753e-12 1.0747775564475516e-10 2.6851779702575530e-11 0.0000000000000000 -53.009977022357148 -84.940192361847963 77.707205907375524 356.07450292316213 0.0000000000000000 0.0000000000000000 0.0000000000000000 0.0000000000000000 3.0301446428824992 3.0604871311932560 1.0303427988752387 1.0150858420690569 204.85571060161604 204.85571059248346 1.0150568353859486 
-40.442974999003496 -85.655303955327568 66.024335487532269 -40.442974999003482 -85.655303955327597 66.024335487532241 -74.037461473836046 -1.8173581324909507e-07 4.5013984867084393e-06 -1.5592675262259397e-05 0.0000000000000000 2.4464925102151130e-09 -6.2636320867507796e-10 7.6254926505982032e-07 0.00014537012486997327 1.1898523802733118e-11 9.7258714445010096e-12 -2.2107799244614947e-11 0.0000000000000000 -40.313282635619565 -85.652866469445740 67.489144002613742 334.72004880612383 0.0000000000000000 0.0000000000000000 0.0000000000000000 0.0000000000000000 3.0288797425145479 3.0579602922939935 1.0290809423815579 1.0147518388391650 240.85458566809933 240.85458567138878 1.0144359251930732 
-43.061809133109243 -94.078562301620309 81.967795033087555 -43.061809133109236 -94.078562301620366 81.967795033087498 -48.343942804702451 1.5503503395861048e-05 4.0800349741593361e-06 -1.3094920106873949e-05 0.0000000000000000 4.9916560434840465e-09 -5.1018810753738125e-09 7.3261761521704513e-07 0.00014043328187154285 4.9172919372820617e-11 1.5530813851348372e-11 9.0471390364356697e-11 0.0000000000000000 -42.930125987095458 -94.071309017270835 83.274511392489799 283.94561953274422 0.0000000000000000 0.0000000000000000 0.0000000000000000 0.0000000000000000 3.0308354110812230 3.0618898133025052 1.0310548190294286 1.0152042686454472 197.94280343973941 197.94280383596407 1.0154083323578187 
-45.089269121508636 -99.004342701618455 66.572673350504857 -45.089269121508629 -99.004342701618484 66.572673350504843 -63.464372133982508 1.0328006108446167e-05 7.8927024353041554e-06 -2.3317743047678603e-05 0.0000000000000000 1.0411690988532118e-09 1.1043355119255693e-10 7.3982316273202287e-07 0.00014559625288811272 -2.4716390450973558e-11 -1.2855351126557777e-11 -6.8959362199256533e-11 0.0000000000000000 -44.946335306532468 -98.969717126470769 68.015559797458934 339.42980011114588 0.0000000000000000 0.0000000000000000 0.0000000000000000 0.0000000000000000 3.0304252481521980 3.0610866514665531 1.0306619508458865 1.0151099218129400 224.05811949238404 224.05811881546813 1.0152147281799626 
-35.782676602002965 -100.86437700350217 73.982153473326264 -35.782676602002986 -100.86437700350218 73.982153473326221 -59.363315757925491 8.2998665335650036e-06 5.4965839582985864e-06 -1.2011439293091294e-05 0.0000000000000000 2.9064419933855784e-09 -8.7707327620607810e-09 7.3034301056576324e-07 0.00014321533681499563 3.0545102058457420e-11 -2.0327111393028107e-11 1.5998839517230601e-11 0.0000000000000000 -35.672109309640206 -100.83293553867907 75.360366609178811 338.44965823895870 0.0000000000000000 0.0000000000000000 0.0000000000000000 0.0000000000000000 3.0282418121013661 3.0566742244927050 1.0284327831756845 1.0146658129797959 212.59344737699638 212.59344764162174 1.0141165991056083 
-49.129111675933039 -112.05216936599241 63.911983632762201 -49.129111675933025 -112.05216936599238 63.911983632762222 -57.299139101953806 1.5605017761132026e-05 6.7831045100155693e-06 -1.4388136556828227e-05 -50.846204147374245 1.1168168230490938e-09 1.9165791176334326e-10 7.5431974710937766e-07 0.00013353864749208807 -2.5260780589053686e-11 2.3972976635675720e-11 -3.4057479988419998e-12 0.00012902900952549336 -48.975793059600008 -111.99207679200002 65.383142959360015 326.57209562220959 0.0000000000000000 0.0000000000000000 0.0000000000000000 0.0000000000000000 3.0306902083493226 3.0615914826257078 1.0309016733666074 1.0152602904388488 215.01563233819635 215.01562981297806 1.0153327479738310 
-25.331681906774755 -110.53901050201942 66.020906762012373 -25.331681906774751 -110.53901050201932 66.020906762012388 -68.914566647574205 2.9073103259464396e-06 3.5263728712331600e-06 -1.3711210012194450e-05 0.0000000000000000 6.7121286653759615e-10 1.8224122211307758e-10 7.4282941975312156e-07 0.00013685410714767748 1.1948261309079910e-12 -8.2302816916721230e-12 6.4954752354372115e-13 0.0000000000000000 -25.239536857883341 -110.48187134057846 67.469656361758609 349.35568362690350 0.0000000000000000 0.0000000000000000 0.0000000000000000 0.0000000000000000 3.0296872364805876 3.0595828346017284 1.0298960204021199 1.0149460658047160 235.28988978745116 235.28989012266379 1.0148377069017878 
-44.216543137194257 -111.32727928413782 75.100129585096425 -44.216543137194250 -111.32727928413775 75.100129585096468 -49.275085474705982 8.3970353441395340e-06 -6.9656488057833553e-06 -7.8250081468669824e-06 0.0000000000000000 1.0248268934864859e-09 1.8714860217095008e-10 6.9336189501001410e-07 0.00013219660145255045 -8.1240538475753988e-12 -1.1035528059680063e-11 3.5537127004872155e-11 0.0000000000000000 -44.075852747763513 -111.26860156453857 76.452402029906395 268.59635586333832 0.0000000000000000 0.0000000000000000 0.0000000000000000 0.0000000000000000 3.0316288206131881 3.0635119852847486 1.0318837649878321 1.0151369723805710 205.36378381819333 205.36378746458658 1.0158169034055609 
-58.458079615733624 -106.64141596119009 104.28898282333046 -58.458079615733602 -106.64141596119002 104.28898282333053 -26.258951566135213 2.9065869871111995e-06 1.2249767695666153e-05 -6.0023193967094995e-07 0.0000000000000000 4.0574695218175428e-08 -1.0137457236818309e-08 5.9113946401628871e-07 0.00011426041445852668 -9.3290242451104536e-12 -1.3468076764101897e-11 5.9704925255091408e-12 0.0000000000000000 -58.254647241440821 -106.62760994408018 105.33920711112118 241.62621693813244 0.0000000000000000 0.0000000000000000 0.0000000000000000 0.0000000000000000 3.0358226548211737 3.0719791668698275 1.0361574463961707 1.0177159878492323 180.95858546633198 180.95853899809791 1.0179181134751112 
-64.591142304736621 -90.068665992669622 95.528248795126373 -64.591142304736636 -90.068665992669608 95.528248795126331 -40.374785393008324 -5.7664092328269430e-06 3.8034600298108746e-06 8.7420376003278114e-06 0.0000000000000000 2.9064517962993304e-08 -3.0519757727126318e-08 6.4623360933245556e-07 0.00011483077771313610 1.1438137713247644e-11 -4.0473140366478593e-12 -2.6509526720900084e-11 0.0000000000000000 -64.370648572599308 -90.090304358695661 96.688480747766732 239.98138923263960 0.0000000000000000 0.0000000000000000 0.0000000000000000 0.0000000000000000 3.0326283718147944 3.0655028683799030 1.0328749264033694 1.0156939715588849 190.88927523008044 190.88929078980266 1.0163035998703918 
-76.171296325574744 -99.709313397858367 100.22191263688688 -76.171296325574716 -99.709313397858324 100.22191263688684 -37.142398571161621 -1.0019011196645680e-05 1.1650406532178799e-05 -2.5544997743694382e-06 0.0000000000000000 4.2197874396519169e-08 -1.1341454140229015e-08 6.0857012090844465e-07 0.00011821613369461217 1.8627004687694500e-11 -1.7800324047686215e-11 1.0504129890825595e-11 0.0000000000000000 -75.913673002404863 -99.702254402691466 101.32606574872912 288.13617662859207 0.0000000000000000 0.0000000000000000 0.0000000000000000 0.0000000000000000 3.0335984937615730 3.0674736064117680 1.0338757463184616 1.0163419893836281 189.93390185970173 189.93385194938682 1.0167972662628093 
-55.357075008125868 -93.572691923569323 102.24732907480063 -55.357075008125854 -93.572691923569380 102.24732907480069 -37.689139051852045 -5.2848486370856258e-07 6.1017876163146343e-06 3.2542129373357625e-06 0.0000000000000000 3.0358447088276490e-08 -2.4454323670991035e-08 6.1229636713070671e-07 0.00011325421998907470 5.6790729028145002e-12 7.5767237753790422e-14 2.6891927269451965e-12 0.0000000000000000 -55.164710769962618 -93.586508083202432 103.32606452766413 222.68531933077850 0.0000000000000000 0.0000000000000000 0.0000000000000000 0.0000000000000000 3.0328879588152371 3.0660144422508901 1.0331269279496356 1.0163319224478713 193.64665871080825 193.64666811698260 1.0164286360769876 
-45.907815789651110 -176.08087030657893 155.14747750151619 -45.907815789651089 -176.08087030657890 155.14747750151622 -32.653142206645853 -5.0893674269062695e-06 -6.2821324775998572e-06 1.2025431405682154e-05 0.0000000000000000 1.0564953530078913e-09 5.9027102650155427e-10 2.5722932317506775e-07 8.0602918488560218e-05 2.0500054593608442e-12 5.0012595867348420e-12 -4.8617983817070284e-12 0.0000000000000000 -45.762777822239421 -175.89580528354742 155.64915507299250 248.91339099022119 0.0000000000000000 0.0000000000000000 0.0000000000000000 0.0000000000000000 3.0329831109420788 3.0662133833410654 1.0332307899181279 1.0161004620107692 178.49014306638728 178.49017425340065 1.0164794024341564 
-51.595153263503079 -185.76678158681821 167.78633874401169 -51.595153263503100 -185.76678158681827 167.78633874401166 -36.010705540403507 3.3945934626474730e-07 -5.8500991092469503e-07 -3.2982368681314824e-07 -37.399688130718026 1.1629907765986493e-09 6.5055491549337319e-10 1.8836733817195750e-07 7.8729500703768429e-05 -6.7626129443195874e-13 2.0946634634975474e-12 2.2361862711490508e-12 7.9436836944916031e-05 -51.435495451599998 -185.56281141599996 168.15371392000000 294.81703600272857 0.0000000000000000 0.0000000000000000 0.0000000000000000 0.0000000000000000 3.0304068108285871 3.0610268761118142 1.0306204978444737 1.0153351856134603 179.15341424008702 179.15343080316453 1.0151949107169103 
-42.811313936034139 -171.35635051092544 165.88326010547590 -42.811313936034139 -171.35635051092544 165.88326010547593 -35.242546761374186 7.5524906513987393e-07 -7.9976148560130498e-07 3.3769559063515004e-06 0.0000000000000000 2.7131689593480228e-09 -1.0304058070192945e-08 2.0291938450498774e-07 7.9814350645993813e-05 -1.8365812810358725e-12 -3.1096744435623426e-12 1.8711713186573672e-12 0.0000000000000000 -42.672974891599750 -171.18173466392949 166.26923354793541 271.88244999766295 0.0000000000000000 0.0000000000000000 0.0000000000000000 0.0000000000000000 3.0307149147155759 3.0616505536715413 1.0309361010682705 1.0154754681575437 178.06598669629471 178.06599296134752 1.0153502648174326 
-59.562874521939577 -178.20659745521132 157.27150875885343 -59.562874521939584 -178.20659745521141 157.27150875885351 -37.533561791829818 -3.3602695186820801e-06 -1.0813161067793236e-06 -2.6261466060744630e-07 0.0000000000000000 1.3121897353418619e-09 6.0348723240899450e-10 2.4565666167930539e-07 8.1885795911602541e-05 2.8953459972280397e-12 -4.0015629035913600e-14 2.1181305465810120e-12 0.0000000000000000 -59.382734921100123 -178.01738339707751 157.75061606229067 243.94852352315442 0.0000000000000000 0.0000000000000000 0.0000000000000000 0.0000000000000000 3.0305566931376875 3.0613228298787480 1.0307665398747980 1.0154485009432876 181.78121083539040 181.78112804231853 1.0152668254368218 
-30.768768380864270 -102.75504383847166 94.161559110028477 -30.768768380864262 -102.75504383847164 94.161559110028506 -33.449134067179436 4.5340856581935087e-06 8.1301442442022150e-06 -2.0432733999159602e-05 0.0000000000000000 -5.2116792330334454e-09 3.2933724853381357e-09 6.3232645509547300e-07 0.00012895314712294678 -2.8468225778408279e-11 5.9317262367681683e-11 -4.4216008952020707e-12 0.0000000000000000 -30.660097366607719 -102.72526557899965 95.328291536857705 204.58703120518373 0.0000000000000000 0.0000000000000000 0.0000000000000000 0.0000000000000000 3.0328895019393038 3.0660154881211041 1.0331263917985292 1.0162187841925772 181.80271818701237 181.80271905153734 1.0164280616788257 
-18.879781371651333 -110.96391963857361 92.183292400432478 -18.879781371651344 -110.96391963857367 92.183292400432478 -43.407010127654786 7.5842768625698843e-06 9.5084767758829192e-07 -1.7469527316286670e-05 0.0000000000000000 5.5039891741492930e-10 1.8489251796260930e-10 6.0028542492318582e-07 0.00012952785745272763 3.4911396155986415e-11 7.3452140092122607e-14 -1.6540372538565254e-11 0.0000000000000000 -18.804221549666405 -110.90595113131390 93.354036648627854 267.24800799435923 0.0000000000000000 0.0000000000000000 0.0000000000000000 0.0000000000000000 3.0305444225803639 3.0612923862476475 1.0307483437643610 1.0153971839491007 195.25005342202704 195.25005193226269 1.0152580374869897 
-33.924106141972409 -104.74996500625709 83.723535092402813 -33.924106141972409 -104.74996500625716 83.723535092402884 -46.429671582467606 7.2738328813710986e-06 -5.3521266448542173e-07 -1.4632538695016649e-05 0.0000000000000000 -1.2769562194197511e-08 -1.7897774512996453e-09 6.8989470973962708e-07 0.00012727229467718860 -1.9852839717903590e-11 1.2559239685114842e-12 -5.2479228135971627e-12 0.0000000000000000 -33.815892125380543 -104.71065599625929 85.007910193808286 270.69679205096202 0.0000000000000000 0.0000000000000000 0.0000000000000000 0.0000000000000000 3.0292560496996814 3.0587201737438265 1.0294645493041077 1.0150306456357574 193.58019816833172 193.58019689962526 1.0146247535178998 
-18.997044981579091 -100.41706409544396 94.249273167143485 -18.997044981579094 -100.41706409544396 94.249273167143457 -39.205762641012036 2.5811489629569627e-06 -2.5363837143620297e-07 -5.0488740817612678e-06 0.0000000000000000 5.5259679818120411e-10 1.1923356746379454e-10 5.8902907307256669e-07 0.00011993997848210464 1.4751505629584086e-11 1.5216149161589759e-11 4.5126697372084861e-12 0.0000000000000000 -18.921183722278450 -100.37968114352928 95.398064000337470 185.31956687594098 0.0000000000000000 0.0000000000000000 0.0000000000000000 0.0000000000000000 3.0310930261271030 3.0623904783325879 1.0312978225614629 1.0154553610258277 188.70574875916373 188.70574870087182 1.0155287782629470 
-31.228559655547848 -118.04423008030064 172.91115563105365 -31.228559655547858 -118.04423008030064 172.91115563105362 -43.872109669593250 7.7489379647198871e-06 7.6302205332153734e-06 4.3193698004208723e-06 0.0000000000000000 5.2802324872017049e-09 -6.9431534335300794e-09 1.5045830469491719e-07 9.3699064692586112e-05 -1.3395235682794047e-12 -1.3634080416040512e-12 -5.6197890927877138e-12 0.0000000000000000 -31.124431206993112 -117.97934695114738 173.21200361760444 258.17126679857051 0.0000000000000000 0.0000000000000000 0.0000000000000000 0.0000000000000000 3.0309042276033571 3.0620209083147216 1.0311170682979984 1.0155508149303174 194.18118746958760 194.18118757952291 1.0154394027408566 
-30.748550009795355 -133.23175632238053 164.41074980789529 -30.748550009795370 -133.23175632238053 164.41074980789531 -37.391736606268061 6.9811795566851803e-06 4.5214597272811080e-08 5.8099756189351851e-07 0.0000000000000000 9.3369165541704447e-09 -7.2911465477782526e-09 2.0436232258763736e-07 8.5073647201697295e-05 -3.4098841825834852e-12 -3.8075905181632281e-12 7.0726103871063391e-13 0.0000000000000000 -30.642131568542830 -133.13454878399213 164.80820313575899 262.24283076768535 0.0000000000000000 0.0000000000000000 0.0000000000000000 0.0000000000000000 3.0317374975662164 3.0637156634250813 1.0319786898070438 1.0159604458255755 186.45300693610199 186.45300604133240 1.0158634078856321 
-42.819405818042945 -120.16404940110382 163.31296348844160 -42.819405818042931 -120.16404940110384 163.31296348844168 -33.354089563173417 1.1637328259455478e-05 7.1402656872442561e-06 4.0550970068977692e-06 0.0000000000000000 1.9159343471067808e-08 -2.1142245782795425e-08 2.0538099631711798e-07 8.9027749129110510e-05 -6.3195241248255639e-12 -7.2283748450754321e-12 -2.4187930387671303e-11 0.0000000000000000 -42.676694985445003 -120.10595080876966 163.70375490782192 268.28772502602959 0.0000000000000000 0.0000000000000000 0.0000000000000000 0.0000000000000000 3.0348759499313904 3.0700585272580891 1.0351833476424550 1.0169145837710183 185.90604674673855 185.90604661472986 1.0174396120076716 
-23.835622613875973 -114.29844435432612 161.37729287398992 -23.835622613875980 -114.29844435432607 161.37729287398994 -43.631487537287185 3.7335351193670947e-06 2.8286769634799493e-06 4.4482287164069312e-06 0.0000000000000000 6.4319703382831328e-10 2.0564797087452291e-10 2.2328658211279162e-07 8.9132590958060983e-05 -2.7961695668961373e-12 -3.3110402981666670e-12 -1.2380640181414822e-12 0.0000000000000000 -23.747323328369049 -114.23396745764113 161.81277151251504 321.01516800445251 0.0000000000000000 0.0000000000000000 0.0000000000000000 0.0000000000000000 3.0303535452930537 3.0609157692283118 1.0305626128322845 1.0153953528264572 193.35156012338857 193.35156018330318 1.0151664898040382 
-6.5072029152676416 -105.03394703676969 108.33235756077170 -6.5072029152676416 -105.03394703676965 108.33235756077170 -26.368368317663961 3.3372660959614136e-07 -1.5950735490741793e-08 -9.8872746303142702e-06 -22.277145439661641 3.1872381470177125e-10 1.4797493785856377e-10 5.1229834152621834e-07 9.1682186501787383e-05 -9.4505514537735854e-13 5.7756468237003632e-14 2.1255707578706794e-11 8.5028077853509175e-05 -6.4634479885999987 -104.98755276399999 109.33149947120000 327.67017865987640 0.0000000000000000 0.0000000000000000 0.0000000000000000 0.0000000000000000 3.0306828688960272 3.0615867935275891 1.0309043812760021 1.0154740699956357 159.81234746168323 159.81234783912745 1.0153347076728809 
-11.864364456370385 -97.147882640321413 100.35375967119771 -11.864364456370383 -97.147882640321413 100.35375967119772 -36.043184372548282 -1.0332859263670457e-06 -2.6641151763884730e-07 -1.0927822857006417e-05 -34.329984714486393 4.1903581993185668e-10 9.8887231736455280e-11 5.5576918800426256e-07 0.00010876896557500976 2.3727252403631017e-12 -2.4075980412786818e-12 1.3125293615343197e-11 0.00010793392938619119 -11.806838433999999 -97.116880539599975 101.43768333439998 212.90238721710071 0.0000000000000000 0.0000000000000000 0.0000000000000000 0.0000000000000000 3.0304593612572757 3.0611294160974327 1.0306704802117588 1.0153269097671778 178.61738662424759 178.61738663745126 1.0152194673315547 
-15.917549761953586 -110.41700381811054 102.03132911466052 -15.917549761953582 -110.41700381811053 102.03132911466054 -32.028499666100487 4.7387640205890036e-06 -2.8487564813840533e-07 -2.0481553507187010e-05 0.0000000000000000 4.9493110651499528e-10 1.8148837988007929e-10 5.4662906556757207e-07 0.00010425746564821179 -1.0726863758940178e-11 3.2942959745361321e-12 3.1195110128116797e-11 0.0000000000000000 -15.849604639409371 -110.36010279166017 103.09742667861765 236.22178992679409 0.0000000000000000 0.0000000000000000 0.0000000000000000 0.0000000000000000 3.0304581238345336 3.0611346869928031 1.0306770101584457 1.0154789809614229 173.11894446927087 173.11894409509193 1.0152226951476611 
-23.837883752369972 -99.569941982754173 101.20698982289524 -23.837883752369972 -99.569941982754202 101.20698982289520 -32.323057988127296 5.3489657030660988e-06 9.1487442209645851e-06 -1.3276901352478489e-05 0.0000000000000000 6.4323915985320390e-10 1.1396497634486025e-10 5.5112042263161243e-07 0.00010753071984947263 5.4519622461358991e-12 -1.1664816578235985e-11 2.5623945909313408e-11 0.0000000000000000 -23.749578654390465 -99.534212460059550 102.28184693721489 211.57004919854941 0.0000000000000000 0.0000000000000000 0.0000000000000000 0.0000000000000000 3.0314538995045752 3.0631465453331699 1.0316931260257152 1.0157915595411886 175.97574946016664 175.97574911814812 1.0157228593770273 
-54.282723931335767 -108.39158071680841 112.89566232631832 -54.282723931335788 -108.39158071680841 112.89566232631837 -18.378377876343567 4.2216135346725820e-06 1.4440272629530737e-05 -1.0069464330565293e-05 0.0000000000000000 5.5940923587625140e-08 -8.7746108785112117e-09 5.4215483469995841e-07 0.00012223903429725482 1.1671014637359540e-12 2.0809749984080520e-11 -5.2641098035385248e-11 0.0000000000000000 -54.087034329299712 -108.37170302860723 113.84396407125838 191.01171882188567 0.0000000000000000 0.0000000000000000 0.0000000000000000 0.0000000000000000 3.0381394936363004 3.0766533596127634 1.0385149655189887 1.0186396117526739 171.51829028260784 171.51828389453024 1.0190755980547268 
-41.849360121418542 -107.77122824465781 109.99273303867045 -41.849360121418542 -107.77122824465779 109.99273303867041 -22.451728781996039 -3.2211412997734202e-06 9.7776204739642914e-06 1.1513704278650721e-06 0.0000000000000000 4.8196070694163365e-08 -2.3505324105576600e-08 5.5548442435300093e-07 9.6459399841501318e-05 2.1005172517216035e-11 -3.1855057935261799e-11 -1.9234034694970254e-11 0.0000000000000000 -41.690910404717421 -107.74885629568415 110.97670241767709 270.34727434602189 0.0000000000000000 0.0000000000000000 0.0000000000000000 0.0000000000000000 3.0358774020069839 3.0720575315907479 1.0361808384769366 1.0178297788412316 175.97343253020691 175.97343862057789 1.0179297130408858 