# For a description of the Tecplot format see the Tecplot User's guide.
#
Variables=x,y,z,s_u,s_v,s_w,s_p,mono_f_vel_u,mono_f_vel_v,mono_f_vel_w,const,u_nu,v_nu,w_nu,p_nu,x_nu,y_nu,z_nu,const,u_ref,v_ref,w_ref,vol_ref,x_ref,y_ref,z_ref,const,I1,I2,I3,J,p1,p2,p3
Zone f=fepoint, n=356, e=1130, et=brick, c=black
-67.3263 -97.7706 82.3583 -67.326317599694377 -97.770637581821561 82.358346385725582 -143.29887006794797 -8.3761709016948624e-06 1.2329897896095000e-05 -9.5001899001412481e-06 -2.4035655880944566e-20 8.6454433084748303e-08 4.6343637816192995e-09 0.00015720386647544160 0.0043862781237595933 1.8665624777150910e-10 -2.8480793623742490e-10 1.3315815670564695e-10 1.9658456106773775e-21 -65.754724465942431 -97.517594547729473 92.373562431030237 2074.8615187338191 0.0000000000000000 0.0000000000000000 0.0000000000000000 0.0000000000000000 3.2632762206876729 3.5417517656469171 1.2787241184219293 1.1308780311059297 1666.0496273647564 1676.3990363261423 1.1308068652262084 
-77.524600322205174 -131.32767037910824 67.640952778691798 -77.524600322205174 -131.32767037910824 67.640952778691812 -150.78976156998962 -3.3791994575029798e-05 -3.7700952073042702e-07 6.7233715819870875e-07 -120.69954438038639 9.7781283431297439e-08 1.4055854480332640e-08 0.00017648400616465662 0.0044706290052006050 6.9600713535685514e-10 -2.0405005509843452e-11 2.2454480042540156e-11 0.0042020267838122080 -75.747104543999981 -130.56019973999997 78.884476808000016 2128.8259272129790 0.0000000000000000 0.0000000000000000 0.0000000000000000 0.0000000000000000 3.2633697495610337 3.5419533786859740 1.2788326579568154 1.1308780311059303 1688.0391929166399 1656.0325832662859 1.1308548671849541 
-64.945805496788807 -122.42562083666078 59.301061773137334 -64.945805496788807 -122.42562083666077 59.301061773137342 -142.37364876728429 9.8994281199192693e-06 2.5414650216971901e-06 9.4960655089482045e-07 -124.90013185631405 8.3810487799818021e-08 1.1556511303467687e-08 0.00018740946400797043 0.0044440602838460201 -1.8665986203821442e-10 -2.5310464762476133e-10 1.3837592788333754e-10 0.0037857588053412032 -63.422274742800013 -121.79461816400000 71.240629883439979 1237.7701333319521 0.0000000000000000 0.0000000000000000 0.0000000000000000 0.0000000000000000 3.2635344069051828 3.5422812149466014 1.2789955450956143 1.1308780311059301 1657.5223070826180 1658.6900164213844 1.1309268073288632 
-57.526044399266162 -132.87067196286159 65.193640388159380 -57.526044399266169 -132.87067196286162 65.193640388159366 -124.33668396714275 2.3261185067819179e-05 5.8847265104030305e-06 -1.5374112190063624e-05 -133.73448108869897 7.5569638019468144e-08 1.4489067945433476e-08 0.00017969004425921753 0.0041062106504219931 -3.2570750957684989e-10 2.4116666305802948e-11 4.1209931139333961e-10 0.0050176258941708437 -56.152318124399997 -132.07954718800002 76.641416164000006 2090.5778096190215 0.0000000000000000 0.0000000000000000 0.0000000000000000 0.0000000000000000 3.2632038181761982 3.5416182873353108 1.2786635961898127 1.1308780311059297 1639.1202911019136 1632.7083778111589 1.1307802105163083 
-125.64694847314962 -110.84081146658534 78.903902830269075 -125.64694847314965 -110.84081146658534 78.903902830269075 -201.89477255691978 -1.9344381186374300e-06 5.1420073088836399e-06 -2.8740858688185640e-05 -212.87820097818809 1.5122895882790921e-07 8.3039495279990660e-09 0.00016172927063351494 0.0050083809521929232 -4.1216021907956142e-11 -1.4755936971219273e-10 1.7159953143214234e-10 0.0050709265607721873 -122.89786571200003 -110.38740333199999 89.207425400000020 2092.2379289329847 0.0000000000000000 0.0000000000000000 0.0000000000000000 0.0000000000000000 3.2634608939709464 3.5421353380516676 1.2789233251753991 1.1308780311059288 1793.5800408221617 1793.9635523972452 1.1308949249662847 
-125.51625974447941 -129.23957531605788 83.567653198001366 -125.51625974447940 -129.23957531605788 83.567653198001366 -192.06985426797991 -2.3580029414522467e-06 -7.3933491847883862e-07 -2.2951869472070392e-05 -206.50278170036847 1.5108381359874024e-07 1.3469597437421045e-08 0.00015561964546506601 0.0048739714190759488 -1.3375353400138032e-11 -5.6329484254923494e-11 5.2704366750837493e-11 0.0045996585149892426 -122.76981557999994 -128.50411506799998 93.481940963999989 2295.0048277193882 0.0000000000000000 0.0000000000000000 0.0000000000000000 0.0000000000000000 3.2635063518970480 3.5422221394401059 1.2789645349862666 1.1308780311059294 1768.4076422411299 1774.5756653453029 1.1309130980399120 
-89.350199005299032 -120.14927700705738 99.420503209319335 -89.350199005299103 -120.14927700705734 99.420503209319278 -154.02830525924145 -1.7454842508959204e-05 5.2259388900353482e-07 -1.9095919543478311e-05 -8.5553894998439528e-20 1.1091553067665849e-07 1.0917403869825648e-08 0.00013485203056617934 0.0044353277176231313 4.1278196461808359e-10 -2.0597232204558144e-11 1.3981307979979272e-10 8.9777865547843317e-21 -87.333945182495114 -119.55317056945796 108.01171823852533 1853.2119812635015 0.0000000000000000 0.0000000000000000 0.0000000000000000 0.0000000000000000 3.2632431350851232 3.5417065652207209 1.2787126534508253 1.1308780311059297 1697.9374908581881 1677.5165816984520 1.1308018198125671 
-124.62526846222461 -119.53599622238109 98.357745034551471 -124.62526846222462 -119.53599622238109 98.357745034551485 -170.45629470235602 -1.3049529763464203e-06 4.2746625663678197e-06 -1.3773884056058993e-05 -165.91787866885036 1.5009422385525717e-07 1.0745208056661681e-08 0.00013624426934910616 0.0046191993937097333 -3.5143610476665742e-12 -1.0028076020065343e-10 1.3097236780005236e-10 0.0046252517947086439 -121.89681335200000 -118.94929134799999 107.03765745040002 1571.7251237143605 0.0000000000000000 0.0000000000000000 0.0000000000000000 0.0000000000000000 3.2634262008301644 3.5420433452611784 1.2788653586060239 1.1308780311059297 1726.4294581289030 1734.4605970042180 1.1308692956781912 
-45.302436194089623 -164.90655585752916 116.48265448771561 -45.302436194089630 -164.90655585752924 116.48265448771559 -104.79109835593202 3.1686409366924007e-05 -3.5235005456055194e-05 1.2966687880669070e-05 0.0000000000000000 6.1993342043153987e-08 2.3483486488729003e-08 0.00011250020192932200 0.0036663512215442443 -7.6889729234615453e-10 8.4447260736407702e-10 -7.8912004684601179e-11 0.0000000000000000 -44.175503749389662 -163.62432261291502 123.64986896362305 1288.7765825848380 0.0000000000000000 0.0000000000000000 0.0000000000000000 0.0000000000000000 3.2624888042967424 3.5400019403684486 1.2777557691256252 1.1309369442290376 1590.6374711994858 1609.7798603622878 1.1303789527892734 
-16.013825191732280 -144.83937280567733 130.02610473704493 -16.013825191732280 -144.83937280567736 130.02610473704496 -103.54075420180365 7.3969550609684167e-06 -2.4628307737298476e-05 8.0067137539732232e-06 -101.28658299669721 2.9463585321520824e-08 1.7849408395775868e-08 9.4757956272673027e-05 0.0036671901319842736 -1.2901689859960230e-10 5.9384377387136774e-10 -1.1252064368323104e-10 0.0036377010747271061 -15.478227839600008 -143.86476845600004 136.06298808800005 1207.7015194609139 0.0000000000000000 0.0000000000000000 0.0000000000000000 0.0000000000000000 3.2622084312537911 3.5394997014344152 1.2775370935783505 1.1307777289923853 1605.5228321404818 1604.9427393458170 1.1302820548890717 
-45.302436194089623 -164.90655585752916 133.54480576611186 -45.302436194089594 -164.90655585752930 133.54480576611184 -133.62838900189362 4.2526041204048050e-06 -1.8222974478415522e-05 1.2314049045497136e-05 0.0000000000000000 6.1993342043153987e-08 2.3483486488729003e-08 9.0148373292464612e-05 0.0041058362699831329 -9.9724177357492177e-11 5.0806468507261765e-10 -2.0240430737091175e-10 0.0000000000000000 -44.175503749389669 -163.62432261291511 139.28801968872074 2260.0113226803110 0.0000000000000000 0.0000000000000000 0.0000000000000000 0.0000000000000000 3.2631543251144426 3.5414889580901248 1.2785825886723048 1.1308072317458615 1665.9245804125383 1659.4945835105250 1.1307442825024312 
-6.2197285342749922 -162.70724725567365 123.87515683010716 -6.2197285342749922 -162.70724725567365 123.87515683010719 -156.70517855921415 2.1481657632047908e-05 -1.9510785072812780e-05 8.8608512816788240e-06 -167.51285752045186 1.8585649769198298e-08 2.2866008864141918e-08 0.00010281584601656847 0.0043218639046306521 -4.4207116481258509e-10 4.9777906121442735e-10 -1.2473071309658756e-10 0.0042819455425507072 -5.8818733370400009 -161.45872929999999 130.42539591680000 1840.5999298976626 0.0000000000000000 0.0000000000000000 0.0000000000000000 0.0000000000000000 3.2636418948875612 3.5425261407942439 1.2791340198351975 1.1308780311059301 1708.5276672453247 1706.3126181284124 1.1309880693222634 
-10.198861638642750 -107.51133702483511 181.22527689526709 -10.198861638642752 -107.51133702483513 181.22527689526711 -169.51944996851276 -5.1125369778695339e-06 3.4251047526796287e-06 1.0141477332592220e-05 -172.28497543184454 2.3005122778974044e-08 7.3691643898143866e-09 2.7685809062205632e-05 0.0044779250788879472 1.5093188621746945e-11 -1.1126894405008485e-10 -6.2252958880941271e-11 0.0045766183923196743 -9.7806680107999995 -107.10896956400003 182.98909712000000 1021.2952016557671 0.0000000000000000 0.0000000000000000 0.0000000000000000 0.0000000000000000 3.2634223667151501 3.5420544230390800 1.2788808440200599 1.1308780311059288 1727.6584852251040 1726.8274917417514 1.1308761355689863 
-18.144379832696494 -109.06339490109163 192.57755314044920 -18.144379832696497 -109.06339490109164 192.57755314044923 -179.36450124703759 -7.9501371169633321e-06 3.7664266954447414e-06 4.8532324720285014e-06 -184.78842057312539 3.1829910124292482e-08 7.8049249285783162e-09 1.2814054073828629e-05 0.0045262065878511294 4.5359539028077836e-11 -1.3240754319050178e-10 -4.5562393865753939e-11 0.0046736441175464008 -17.565766725200003 -108.63723447200002 193.39391677600000 1230.2822850381203 0.0000000000000000 0.0000000000000000 0.0000000000000000 0.0000000000000000 3.2634134571457487 3.5420355668979555 1.2788708695334672 1.1308780311059290 1749.6732615619189 1748.9392734810667 1.1308717222840807 
-45.302436194089623 -120.14927700705738 167.66910832290444 -45.302436194089651 -120.14927700705736 167.66910832290466 -171.55232208192234 1.5103187345508831e-06 9.4881018454746752e-06 1.5428490686618757e-05 0.0000000000000000 6.1993342043153987e-08 1.0917403869825648e-08 4.5444716011644459e-05 0.0044834210543476059 -1.0892826268990511e-11 -1.9790882227696217e-10 -1.6178080643237864e-11 0.0000000000000000 -44.175503749389591 -119.55317056945772 170.56432113891603 1872.3464537223574 0.0000000000000000 0.0000000000000000 0.0000000000000000 0.0000000000000000 3.2634902866342390 3.5421942331688832 1.2789528046747025 1.1308780311059299 1730.8943621719627 1732.9528995073451 1.1309079940726252 
-9.7407849791990007 -125.06862830666952 187.63583041515659 -9.7407849791990007 -125.06862830666954 187.63583041515656 -172.12897770239232 -3.9769547752101956e-06 -4.1396136643925876e-06 7.6910210977262049e-06 -172.09550725345565 2.2496354529222273e-08 1.2298556395506921e-08 1.9287829719161209e-05 0.0044809831062539301 -3.9219409321886740e-11 7.8045031930013728e-11 -6.1633355750498814e-11 0.0045266261546554193 -9.3318398883999993 -124.39710846400000 188.86462832000004 1016.3527334425750 0.0000000000000000 0.0000000000000000 0.0000000000000000 0.0000000000000000 3.2634089589429580 3.5420262991494305 1.2788660937566736 1.1308780311059283 1733.5687272607590 1733.4674769069882 1.1308696077888074 
-45.302436194089623 -164.90655585752916 99.420503209319335 -45.302436194089623 -164.90655585752927 99.420503209319293 -131.59860184851490 1.0647593259250131e-05 -4.9617543045056835e-05 -4.0070329459748566e-05 5.7576081638673108e-19 6.1993342043153987e-08 2.3483486488729003e-08 0.00013485203056617934 0.0039830050165082526 -2.4315521163482294e-10 1.1406374499642140e-09 2.5137779791081773e-10 -6.0761462007885288e-20 -44.175503749389662 -163.62432261291499 108.01171823852535 1450.3671205666894 0.0000000000000000 0.0000000000000000 0.0000000000000000 0.0000000000000000 3.2644456966439614 3.5443019472434121 1.2801102217485547 1.1312234377415655 1661.5733850694401 1679.2638215722302 1.1314194574946193 
-62.630438417484726 -162.19551906454626 75.407447391056962 -62.630438417484719 -162.19551906454626 75.407447391056948 -181.08057234277112 -1.5354194480412869e-05 -4.5486281742911002e-05 -1.2091263024312681e-05 -187.57587684176363 8.1238898635982450e-08 2.2722327353008609e-08 0.00016630971137487907 0.0045483830751870897 2.9036400196782701e-10 9.1171807040895625e-10 4.1912539907324660e-10 0.0050693247434348294 -61.153654769600031 -160.95484587600001 86.002782780800032 1645.6757988676138 0.0000000000000000 0.0000000000000000 0.0000000000000000 0.0000000000000000 3.2625055795635443 3.5402246158057253 1.2779688546357124 1.1306774220692091 1755.8243969252480 1755.9661556804388 1.1304728196830527 
-45.360809505544786 -169.35199205935336 72.432790657400304 -45.360809505544800 -169.35199205935336 72.432790657400318 -203.91443726466761 1.7444802012022609e-06 -4.6153669781664338e-05 -7.9308282070713073e-06 -176.95281571807297 6.2058169630896374e-08 2.4731570347213960e-08 0.00017020658326671875 0.0047849236667895098 7.1401943688952275e-12 9.5466113271026737e-10 2.9336837938324975e-10 0.0048980428954139791 -44.232698507600013 -168.00161050399998 83.276389748800028 1737.4139093181343 0.0000000000000000 0.0000000000000000 0.0000000000000000 0.0000000000000000 3.2634176855833705 3.5420196441496121 1.2788500251351063 1.1308780311059294 1787.0141694839976 1784.3592753408996 1.1308625348219246 
-45.302436194089623 -187.28519528276502 99.420503209319335 -45.302436194089587 -187.28519528276502 99.420503209319236 -212.40393664035392 -1.0665875450556152e-06 -2.3275805867726083e-05 -1.9563072025574421e-05 -3.9286975505323272e-20 6.1993342043153987e-08 2.9766513476303658e-08 0.00013485203056617934 0.0048863269533120481 6.7864991765454357e-11 5.6188937268107279e-10 2.4216762950773132e-11 4.1865040042317214e-21 -44.175503749389676 -185.65989863464350 108.01171823852533 1616.4576808433910 0.0000000000000000 0.0000000000000000 0.0000000000000000 0.0000000000000000 3.2631196510720182 3.5414118512806887 1.2785396987092237 1.1308172690480116 1805.1026157887823 1804.9305863340869 1.1307252642577981 
-89.350199005299032 -142.52791643229327 133.54480576611186 -89.350199005299103 -142.52791643229324 133.54480576611189 -159.17826017840332 -7.1469995275804708e-06 -6.3708511407730578e-06 6.4112435714135642e-06 0.0000000000000000 1.1091553067665849e-07 1.7200431079444911e-08 9.0148373292464598e-05 0.0044232260255400698 1.7666565554816877e-10 1.4173514230882604e-10 -5.4379091275690202e-11 0.0000000000000000 -87.333945182495100 -141.58874659118649 139.28801968872074 1877.7986991733408 0.0000000000000000 0.0000000000000000 0.0000000000000000 0.0000000000000000 3.2627751667077227 3.5406661338667069 1.2781375574868248 1.1305701740239924 1710.5580790042970 1711.4932547019544 1.1305471152446467 
-67.326317599694335 -164.90655585752916 133.54480576611186 -67.326317599694406 -164.90655585752933 133.54480576611181 -148.69050036708163 -1.6270296496721586e-05 -7.5669406371249486e-06 1.0359739077658070e-05 -7.5488706742052612e-21 8.6454433084748317e-08 2.3483486488729000e-08 9.0148373292464612e-05 0.0042845700629255013 3.9481409357185582e-10 2.2913988245639514e-10 -1.3190416972487693e-10 6.3002524183073062e-22 -65.754724465942374 -163.62432261291517 139.28801968872077 2018.1238718776010 0.0000000000000000 0.0000000000000000 0.0000000000000000 0.0000000000000000 3.2626847665282499 3.5404798309871843 1.2780411796221141 1.1306858256336594 1689.3850409384181 1687.0724812020794 1.1305048275972975 
-89.350199005299032 -164.90655585752916 116.48265448771561 -89.350199005299103 -164.90655585752930 116.48265448771556 -172.43736667845567 -1.1173074649061775e-05 -1.0119495304157956e-05 -7.1752549833970522e-06 0.0000000000000000 1.1091553067665850e-07 2.3483486488729000e-08 0.00011250020192932199 0.0045466993069233491 2.6623966444395064e-10 2.2873626087311487e-10 5.1321196013573590e-11 0.0000000000000000 -87.333945182495114 -163.62432261291505 123.64986896362312 1549.0027140339625 0.0000000000000000 0.0000000000000000 0.0000000000000000 0.0000000000000000 3.2637581211148148 3.5427583136519902 1.2792497063612160 1.1309127403380625 1736.3278576703910 1730.4353627592695 1.1310391339646655 
-89.350199005299032 -142.52791643229327 116.48265448771562 -89.350199005299103 -142.52791643229321 116.48265448771556 -138.58578332523334 -3.0460756225837752e-05 -1.9488995527870762e-05 3.0210085298658293e-06 0.0000000000000000 1.1091553067665848e-07 1.7200431079444911e-08 0.00011250020192932197 0.0041734526551427805 7.3017737444473200e-10 4.2048204801624931e-10 2.7754868692223853e-11 0.0000000000000000 -87.333945182495086 -141.58874659118649 123.64986896362313 1389.1126189879024 0.0000000000000000 0.0000000000000000 0.0000000000000000 0.0000000000000000 3.2628801264403471 3.5407619452063952 1.2781245404750046 1.1308165631849261 1667.7184565652792 1687.4193237799573 1.1305421532317999 
-46.345628352439270 -110.78628305277668 34.868415207504349 -46.345628352439277 -110.78628305277668 34.868415207504356 -248.53312187506151 9.2132745221464394e-06 1.3953214740169286e-05 -1.9792274481087307e-05 -248.65846726508337 6.3151970347563591e-08 8.2886455476938165e-09 0.00021941681878701047 0.0056181793362306909 7.0484048484227003e-11 -9.4663072726248954e-11 3.1442352250216149e-10 0.0054159997846036584 -45.197633928000002 -110.33371083599998 48.847122559999995 1069.0094105005942 0.0000000000000000 0.0000000000000000 0.0000000000000000 0.0000000000000000 3.2634317305884442 3.5420735748406709 1.2788906346499103 1.1308780311059299 1865.5159097925932 1865.4436555220152 1.1308804666123566 
-58.517374228048446 -99.104752478767210 32.008654199519377 -58.517374228048467 -99.104752478767239 32.008654199519363 -277.00557626564682 -9.4424879773510135e-06 1.5956351563317538e-05 -2.6793479989005033e-05 -279.35216816048319 7.6670673282430726e-08 5.0089197234370886e-09 0.00022316317450332690 0.0059753013749380733 3.5222807352997147e-10 -7.7883679139030660e-11 2.9929998650066184e-10 0.0063739551989932426 -57.123633070400032 -98.831257531200038 46.226036100800002 1475.5774262919704 0.0000000000000000 0.0000000000000000 0.0000000000000000 0.0000000000000000 3.2634273715048985 3.5420643179350568 1.2788857238617553 1.1308780311059297 1918.4801423113213 1918.4031651698556 1.1308782972347897 
-61.595530042781895 -105.96566621802819 44.048349652589920 -61.595530042781895 -105.96566621802820 44.048349652589913 -229.45472667903283 1.6404126435189885e-06 4.7811918601498904e-05 -4.7979725711773636e-05 -157.28984927619538 8.0089466530930409e-08 6.9352015241719300e-09 0.00020739088382271120 0.0054348542399249673 3.4003202213338789e-10 -4.1548427186548599e-10 9.3382842964760731e-10 0.0069715284226131722 -60.139641125599979 -105.58699381199996 57.260903223199996 1724.6135661994952 0.0000000000000000 0.0000000000000000 0.0000000000000000 0.0000000000000000 3.2634149375303143 3.5420385458830719 1.2788723707535599 1.1308780311059297 1825.2760768224698 1825.8567127946046 1.1308723982647209 
-20.022554180052872 -88.222730472817943 44.526422859306756 -20.022554180052875 -88.222730472817958 44.526422859306756 -236.16544821318732 -6.9565157323756923e-06 4.6380488830362757e-06 -3.8355084829887744e-05 -238.55769355886318 3.3915927816208224e-08 1.9536787743135164e-09 0.00020676459641677528 0.0054848120717247975 5.1152555077656763e-11 -3.3875130173091668e-10 5.0446294466672480e-11 0.0054810950269870134 -19.406020858399991 -88.116056368799974 57.699076624800000 1439.6451283969650 0.0000000000000000 0.0000000000000000 0.0000000000000000 0.0000000000000000 3.2634224371548437 3.5420540011101500 1.2788803324949478 1.1308780311059299 1847.4821194855251 1847.8251612310048 1.1308759164980304 
-60.204337736996543 -180.10352718974090 67.499884260247867 -60.204337736996543 -180.10352718974084 67.499884260247867 -248.70521134830986 -4.6652993240602026e-06 -8.9775332074691062e-06 -1.2334083622376218e-05 -258.27459109044372 7.8544318743434260e-08 2.7750172604257276e-08 0.00017666880930633513 0.0052754094023984436 1.1261175892462750e-10 4.5878708134283465e-11 3.3407257242541142e-10 0.0058385921841995246 -58.776536899199989 -178.58832514800000 78.755181813599989 1584.4809985467919 0.0000000000000000 0.0000000000000000 0.0000000000000000 0.0000000000000000 3.2637956704039719 3.5428521194847331 1.2793067540512373 1.1308780311059303 1871.5321509368657 1871.9733117726103 1.1310645492166171 
-76.214420017286102 -186.55694589811645 60.375905181506738 -76.214420017286102 -186.55694589811648 60.375905181506717 -258.36105970445550 -1.7995209327767553e-06 -7.5336962704673172e-06 -3.0556862546140863e-06 -260.17938621272845 9.6326119886080974e-08 2.9562046810482911e-08 0.00018600139328839307 0.0054170423711771484 -7.6083147504584566e-12 3.5093077749283370e-11 8.7374637928989006e-11 0.0052578438131249397 -74.463376691600018 -184.94281327599995 72.225767276240006 1182.3928641350060 0.0000000000000000 0.0000000000000000 0.0000000000000000 0.0000000000000000 3.2633773096907750 3.5419333375273090 1.2788037358790800 1.1308780311059297 1889.0140730448077 1889.0871155565912 1.1308419991162690 
-71.390420402065843 -213.61743388582036 76.050610521414129 -71.390420402065843 -213.61743388582042 76.050610521414129 -253.06697263442413 1.5461917298760515e-06 1.6165775582167037e-06 -1.1527529943760205e-05 -252.87860414700666 9.0968283489312185e-08 3.7159580967838224e-08 0.00016546715220400185 0.0053244558186542924 -1.7779758199267288e-11 1.3446085997903978e-11 7.5860402255068066e-11 0.0053483817086292509 -69.736773305200003 -211.58846536000007 86.592267764799999 1391.6778601551057 0.0000000000000000 0.0000000000000000 0.0000000000000000 0.0000000000000000 3.2635045737189019 3.5422535348518069 1.2789989181197805 1.1308780311059305 1875.2699504655093 1874.5908577260284 1.1309284056893454 
-88.819380733891364 -209.23571358459463 80.104834994265502 -88.819380733891393 -209.23571358459461 80.104834994265502 -244.06003897807128 8.3239428522714733e-06 -4.0019968734898213e-06 -1.3361171382100143e-05 -260.21662438118699 1.1032597205251628e-07 3.5929342834251081e-08 0.00016015602060903689 0.0052569970686715912 -1.2087733686190011e-10 8.4413162721874341e-11 -8.9911628042264896e-11 0.0053272063907878805 -86.813844096400004 -207.27391660800001 90.308128229600001 1955.0875990986240 0.0000000000000000 0.0000000000000000 0.0000000000000000 0.0000000000000000 3.2636919169880350 3.5426306419074574 1.2791886350946444 1.1308780311059297 1868.9381550035985 1870.3049002367832 1.1310123030129484 
-76.122806561761010 -214.62983205828172 91.396160103599755 -76.122806561761010 -214.62983205828172 91.396160103599755 -236.11178045686171 -9.6655701228547015e-08 6.2050919247747429e-07 -4.2339241361944564e-06 -241.48736366450848 9.6224362838848192e-08 3.7443820710691966e-08 0.00014536411308441188 0.0051513594789350985 -3.0278762661777230e-12 -6.7608613499704742e-12 5.1369864082667608e-11 0.0052153001872259248 -74.373612905599998 -212.58534351999998 100.65708370800000 988.41240310934302 0.0000000000000000 0.0000000000000000 0.0000000000000000 0.0000000000000000 3.2636938004975362 3.5426663777321865 1.2792236172153566 1.1308780311059292 1853.8930301202422 1852.0819778947316 1.1310278223884971 
-67.326317599694335 -187.28519528276502 99.420503209319335 -67.326317599694406 -187.28519528276502 99.420503209319236 -212.76676381391479 3.5367936399948691e-06 -1.7696183366384883e-05 -2.1256278597373681e-05 -2.9289629503853244e-19 8.6454433084748317e-08 2.9766513476303658e-08 0.00013485203056617934 0.0049238246446601779 -2.2636576968410037e-11 4.2518949372777004e-10 3.7623454581594791e-11 3.0790947774371803e-20 -65.754724465942374 -185.65989863464350 108.01171823852535 1808.0980320372519 0.0000000000000000 0.0000000000000000 0.0000000000000000 0.0000000000000000 3.2624232281534531 3.5398233430185861 1.2776413732260234 1.1306004708124300 1802.2679287905635 1801.2401276404130 1.1303277064045101 
-85.397812842758483 -210.33934198785133 100.52593669172299 -85.397812842758498 -210.33934198785136 100.52593669172300 -221.20141910974090 4.9810604038992484e-06 -4.2537018671380966e-06 -1.6584068517837677e-05 -216.98443650127064 1.0652575901937134e-07 3.6239212741762117e-08 0.00013340388612093082 0.0050196832078698928 -1.0299644989885446e-10 5.4464724674091452e-11 1.5426113814335277e-10 0.0050156259240596033 -83.461357431600007 -208.36062644399999 109.02489266960001 1287.0831768928649 0.0000000000000000 0.0000000000000000 0.0000000000000000 0.0000000000000000 3.2637734843072295 3.5428222747260811 1.2792996053532821 1.1308780311059290 1815.9419592826548 1818.8036249358463 1.1310613625061807 
-42.631854349090858 -130.80574194274044 53.315536673458041 -42.631854349090865 -130.80574194274047 53.315536673458041 -183.51021847399596 1.3983967201839930e-05 8.0158427715115069e-06 -2.4412190466900392e-05 -187.28138448969864 5.9027225801644441e-08 1.3909314811044737e-08 0.00019525064588421517 0.0048126732094741905 -1.0680261719672506e-10 5.3111829554321931e-11 4.9324895091001417e-10 0.0053216882194352813 -41.558840772800004 -130.04627243999997 65.754654395919971 2180.9238908936368 0.0000000000000000 0.0000000000000000 0.0000000000000000 0.0000000000000000 3.2634903167305844 3.5421976554626657 1.2789562855056131 1.1308780311059294 1761.3576403747272 1760.5159022686237 1.1309094630572041 
-23.474322144235970 -135.27306804046989 42.570062928141120 -23.474322144235970 -135.27306804046989 42.570062928141120 -218.59466824213743 7.5876064076707341e-06 3.7653400730751024e-06 -9.4828809021012025e-06 -220.99069477181570 3.7749677744836057e-08 1.5163567956832935e-08 0.00020932747499813331 0.0052045460052696727 -3.0598630557152620e-11 4.6907985081871057e-11 9.7252163153551891e-11 0.0051614696339900680 -22.788097858800000 -134.44511465599999 55.905993737599999 935.86986824075086 0.0000000000000000 0.0000000000000000 0.0000000000000000 0.0000000000000000 3.2633940737887208 3.5419933533735888 1.2788479516348603 1.1308780311059285 1813.7804488282072 1813.6396007558719 1.1308616160988176 
-11.469619543140283 -103.95021215379286 49.337520744559882 -11.469619543140283 -103.95021215379285 49.337520744559896 -215.05012751994781 -5.7550427322203619e-06 -4.5311618887501728e-06 -3.3875511611339072e-05 -209.21714732696003 2.4416505761681861e-08 6.3693421648025597e-09 0.00020046194244827120 0.0051775850167995758 -1.6847641264773782e-12 -1.6158830462494042e-10 6.7430597970193221e-11 0.0051236150015580833 -11.025769398400001 -103.60243655599999 62.108642139439993 1284.9349949311236 0.0000000000000000 0.0000000000000000 0.0000000000000000 0.0000000000000000 3.2634105275443215 3.5420289391874245 1.2788671546495043 1.1308780311059294 1815.3741621213410 1816.1474592126108 1.1308700967024519 
-29.808362939239714 -141.69064289641173 58.025195907690367 -29.808362939239714 -141.69064289641173 58.025195907690367 -183.66831651014184 9.6734392069986499e-06 1.2324956236771570e-05 -2.5916030174235906e-05 -179.58325722457559 4.4784655123253359e-08 1.6965352900299990e-08 0.00018908087898950041 0.0047611666169335648 -1.0260208057404533e-10 3.9922513425257436e-11 4.3692436288898667e-10 0.0053489388237625123 -28.994254794799993 -140.76430841599998 70.071247290159988 2176.9829965296321 0.0000000000000000 0.0000000000000000 0.0000000000000000 0.0000000000000000 3.2635179092956852 3.5422584081917092 1.2789896014167741 1.1308780311059294 1751.7025118039853 1751.1003368988327 1.1309241708293032 
-105.75383480588357 -195.80990294271368 84.176982851448017 -105.75383480588357 -195.80990294271371 84.176982851448003 -229.28199546401845 -1.7202577258837109e-06 -5.9090047130280956e-07 -1.1699083950236154e-05 -240.00748622242915 1.2913443350748288e-07 3.2159919838292694e-08 0.00015482140895528573 0.0051414605315088990 1.7954901952133096e-11 -4.9749222694073687e-11 -5.7844013398832647e-12 0.0050995358027526505 -103.40639267600000 -194.05392295999994 94.040416199999996 2662.2783756828549 0.0000000000000000 0.0000000000000000 0.0000000000000000 0.0000000000000000 3.2636302341682177 3.5425224155196342 1.2791426308947584 1.1308780311059292 1836.3859625424316 1833.4100248670743 1.1309919778358688 
-84.425321705086731 -163.56301923252738 66.459790122148974 -84.425321705086787 -163.56301923252747 66.459790122148945 -232.08016829440038 -1.3229784157895570e-05 -1.6742382976785030e-05 -2.0769926743565264e-05 -230.54301904067299 1.0544565656744886e-07 2.3106271340722628e-08 0.00017803135764893341 0.0051951670057745654 1.3267893278027345e-10 2.1871686056007706e-10 5.9003404239383503e-10 0.0062679810934818635 -82.508500824799995 -162.30138233600007 77.801893530400037 2229.3857910936085 0.0000000000000000 0.0000000000000000 0.0000000000000000 0.0000000000000000 3.2637845059136050 3.5428302616405087 1.2792959634884093 1.1308780311059299 1840.5230254238145 1837.1888587994038 1.1310598079042224 
-28.784532297645406 -125.74393686336640 120.74819230731468 -28.784532297645427 -125.74393686336636 120.74819230731465 -76.115500975404728 -5.8793616625559908e-06 -1.7835360067004449e-06 3.0327580747280062e-05 -8.9873837368928895e-20 4.3647526953849436e-08 1.2488154288448072e-08 0.00010691224477099583 0.0032812986553961195 2.0936579303929107e-10 4.7302665692700924e-11 -3.0970944165484760e-10 8.2391416493044122e-21 -27.991095225219734 -125.06206457489009 127.55940664489751 1124.7619503421174 0.0000000000000000 0.0000000000000000 0.0000000000000000 0.0000000000000000 3.2633087795700111 3.5417965925922315 1.2787358379162463 1.1309936121525253 1551.8761376209957 1552.3088136112633 1.1308118900605770 