# For a description of the Tecplot format see the Tecplot User's guide.
#
Variables=x,y,z,s_u,s_v,s_w,s_p,mono_f_vel_u,mono_f_vel_v,mono_f_vel_w,const,u_nu,v_nu,w_nu,p_nu,x_nu,y_nu,z_nu,const,u_ref,v_ref,w_ref,vol_ref,x_ref,y_ref,z_ref,const,I1,I2,I3,J,p1,p2,p3
Zone f=fepoint, n=1339, e=6475, et=brick, c=black
-60.1789 -70.2954 173.834 -60.178866113471138 -70.295365695063509 173.83418536583352 44.661804431248406 2.1901957813198685e-06 3.1070409364168202e-06 -3.4932081305523641e-06 40.873793912700485 -5.0704185294847548e-10 1.5066392577978149e-11 -1.0266071299724899e-06 -0.0020542092289757489 -1.6479367876592218e-11 1.9506953738754318e-11 -3.5718218946909008e-11 -0.0020618893087063976 -58.668039002000000 -70.473359259200009 176.35421013599998 215.13583165143561 0.0000000000000000 0.0000000000000000 0.0000000000000000 0.0000000000000000 3.2809342784087288 3.5791422460095101 1.2985090879970433 1.1393489608709182 940.10249275102137 940.04054957351696 1.1395213925949219 
-66.611424852293922 -76.334695393259167 182.24778154447029 -66.611424852293922 -76.334695393259167 182.24778154447034 47.235325340261426 -1.8313261626429619e-05 1.8792413842833742e-06 -5.3009425290516215e-06 45.706105888802618 -5.5318316594110684e-10 6.7663652458804791e-12 -7.2380309745767590e-07 -0.0020256322525278154 -3.8795358808872799e-11 2.5466105286918734e-11 -3.9847225617368768e-11 -0.0020302996438736798 -64.963123215600007 -76.414687385200040 184.02450960799996 253.42820447565578 0.0000000000000000 0.0000000000000000 0.0000000000000000 0.0000000000000000 3.2816910435233506 3.5807953680180238 1.2994101189738634 1.1393489608709206 935.13630731534056 935.32912327625115 1.1399171042940082 
-71.414544945028425 -71.424474985501035 174.80216324165991 -71.414544945028425 -71.424474985501050 174.80216324165988 42.874613587466762 -2.2862003480441455e-06 1.8383273375404257e-06 -4.3093585420129303e-06 39.091507673090497 -5.8762228416497919e-10 1.3514966923366954e-11 -9.9176976320336507e-07 -0.0020721198156620460 -1.6811408225551137e-11 1.5774285994287229e-11 -3.8519140920125561e-11 -0.0020747392505395079 -69.663592608799988 -71.584146237200002 177.23667228800005 218.29881668600640 0.0000000000000000 0.0000000000000000 0.0000000000000000 0.0000000000000000 3.2821237951725313 3.5816695360438779 1.2998513724009213 1.1393489608709169 945.09866008956260 945.40167675060536 1.1401108142015315 
-58.643008552079287 -87.833373996289041 168.69696799551400 -58.643008552079259 -87.833373996289069 168.69696799551394 54.101725363688210 -1.1225157648877556e-06 8.5932463042141041e-06 1.0280227877057803e-05 0.0000000000000000 -4.9602533191972498e-10 -9.0301099930911732e-12 -1.2114948049202212e-06 -0.0020524698516301600 -4.9477994597342534e-12 3.0123429721584083e-11 -4.3411860926883564e-11 0.0000000000000000 -57.165005282198301 -87.726774323660578 171.67083873969227 259.76550921814646 0.0000000000000000 0.0000000000000000 0.0000000000000000 0.0000000000000000 3.2788674844129124 3.5745893146259098 1.2960080230250661 1.1388691714396884 917.16601554113709 917.07687567550886 1.1384238811048710 
-91.069353151020209 -83.412788203141019 108.85206933193386 -91.069353151020152 -83.412788203140991 108.85206933193379 90.086968281971764 1.9986073027901388e-05 8.5554324726454200e-06 -1.0798815301840359e-05 0.0000000000000000 -7.2859640543043724e-10 -2.9565239145767915e-12 -3.3653036339842406e-06 -0.0025567076083358631 1.1724152240250488e-10 -5.0657436577714904e-11 -1.2287750761127257e-10 0.0000000000000000 -88.898344731952406 -83.377922378373768 117.11292023788836 283.91631954144174 0.0000000000000000 0.0000000000000000 0.0000000000000000 0.0000000000000000 3.2847109598876760 3.5875105704430483 1.3031246630464819 1.1413511890159036 858.28646320274106 858.23143596029320 1.1415436420080523 
-99.956637315010511 -66.664792941500323 99.097539388911585 -99.956637315010525 -66.664792941500323 99.097539388911613 64.427576005997423 1.0162872978123755e-05 2.0689931523347260e-05 -6.3225582821527251e-05 55.545401526681346 -7.9234541150441384e-10 2.0060619831951954e-11 -3.7163676864793160e-06 -0.0026669646514587394 3.7538083084374615e-12 3.0670320861270115e-11 -2.0575289525367999e-10 -0.0026734074575821380 -97.595692787999965 -66.901700632800015 108.22015140479995 322.25788568967050 0.0000000000000000 0.0000000000000000 0.0000000000000000 0.0000000000000000 3.2794636210077921 3.5759326034963759 1.2967625284493429 1.1393489608709191 897.77383640003177 897.49286239743310 1.1387553548359706 
-81.631845969525813 -67.304930130119374 99.531171934855180 -81.631845969525799 -67.304930130119374 99.531171934855152 55.518959741091770 -3.6436637742118582e-06 1.5632778001888193e-05 -2.2350200313690132e-05 0.0000000000000000 -6.6091654371547303e-10 1.9177770482770029e-11 -3.7007613116202269e-06 -0.0026784304896508809 9.6246958217282927e-12 -3.0102113307871102e-11 -1.8489101111625940e-10 0.0000000000000000 -79.662532843379708 -67.531450170133141 108.61547480962874 295.38956150422752 0.0000000000000000 0.0000000000000000 0.0000000000000000 0.0000000000000000 3.2805823830619310 3.5783947817587936 1.2981110404744411 1.1394655359681254 917.89203697123355 917.83436138483250 1.1393467502366941 
-96.770642375250105 -81.848993319363913 99.543055161942021 -96.770642375250134 -81.848993319363913 99.543055161942007 77.113511815594450 -3.6870941668505393e-06 2.5172335131820907e-05 -4.0945599764874540e-05 0.0000000000000000 -7.6948636351659171e-10 -8.0380146982861334e-13 -3.7003336359475725e-06 -0.0026834464430753975 6.5720607978900604e-12 -1.2461038426429503e-12 -1.8298795293849344e-10 0.0000000000000000 -94.477787882002133 -81.839503548705352 108.62630821647583 293.80807890400462 0.0000000000000000 0.0000000000000000 0.0000000000000000 0.0000000000000000 3.2826289432125146 3.5827257615012269 1.3004015562630107 1.1401204564743941 871.41012791752303 872.31419847706979 1.1403513631991975 
-48.510817083723857 -126.73423968421127 132.45139869701109 -48.510817083723857 -126.73423968421136 132.45139869701103 51.093895657736738 1.6656919086861713e-05 -8.3796098691855353e-06 -1.1411020588900445e-05 0.0000000000000000 -7.4250598127574107e-07 2.4287026948389079e-07 -5.0990601097090640e-06 -0.0023006262221801012 -4.4023592705916374e-11 1.1182425930103856e-11 -1.9784462621428895e-10 0.0000000000000000 -47.292355390977058 -125.96433165720771 138.67232254046354 244.31333887135355 0.0000000000000000 0.0000000000000000 0.0000000000000000 0.0000000000000000 3.2768889004782835 3.5695009159958881 1.2928621506080089 1.1373907195997550 913.97731518964872 913.97778832936820 1.1370409874550345 
-35.162961507215734 -141.40760934641878 133.07681909373088 -35.162961507215748 -141.40760934641870 133.07681909373093 52.039964189842074 1.0253922193230181e-06 1.1109950245432889e-05 -1.5835015307426236e-06 0.0000000000000000 -3.4597480189124232e-07 2.2448057168707187e-08 -3.3531031955800765e-06 -0.0021057730469094781 8.5711055011706973e-12 -4.5757677500079131e-12 -2.0326063947675528e-10 0.0000000000000000 -34.196989160350306 -140.43319657724166 139.21506628885933 210.16870282748488 0.0000000000000000 0.0000000000000000 0.0000000000000000 0.0000000000000000 3.2778335299532939 3.5721480119486739 1.2945918346245830 1.1379572859370755 912.64816354486061 912.64813308282214 1.1378013638727789 
-31.853700927411403 -128.40611881065570 136.95010476453015 -31.853700927411403 -128.40611881065567 136.95010476453018 46.249889990547231 2.5443257337593456e-06 -4.8374741549945047e-06 8.8440390404457677e-06 0.0000000000000000 -3.0388147553850331e-10 -6.4767302632162682e-11 -2.3540596032489702e-06 -0.0020515512691111591 -1.0026670162599545e-10 5.5410328905198917e-12 -1.1364632928674313e-10 0.0000000000000000 -30.948229910445860 -127.64113600963313 142.72864290474456 229.21992526850030 0.0000000000000000 0.0000000000000000 0.0000000000000000 0.0000000000000000 3.2753081163036524 3.5665815579478952 1.2915326006468610 1.1371853819384539 918.00576214367197 918.00567139505426 1.1364551702362815 
-49.652079250798209 -131.74670389111327 141.43893787317072 -49.652079250798202 -131.74670389111319 141.43893787317072 56.505359524692381 1.0776548120257237e-05 9.2661096599243523e-06 -5.0703582036328529e-06 0.0000000000000000 -7.1330903334703444e-07 3.4515210127629811e-07 -4.4190949211524137e-06 -0.0020825989185418122 -1.5476099727293889e-11 1.7186134022494426e-10 -3.1972937919538572e-10 0.0000000000000000 -48.406431667502837 -130.90513559487593 146.85896726379221 225.63426853136377 0.0000000000000000 0.0000000000000000 0.0000000000000000 0.0000000000000000 3.2783981290327939 3.5729303531207206 1.2947953134534205 1.1381632357414835 906.51894504046129 906.51904534763912 1.1378905763612506 
-54.374129489802705 -84.948152195405555 65.588646117933948 -54.374129489802719 -84.948152195405569 65.588646117933934 74.633382088309034 6.1670468697663438e-06 7.8322536530844506e-05 1.3099785507701501e-05 0.0000000000000000 -4.3414785598443716e-08 -1.5344335540648554e-06 -5.7871944500207763e-06 -0.0038704702959483873 -6.2217966125791357e-10 -4.6370789461393189e-09 4.7131796472845761e-10 0.0000000000000000 -53.009977022357148 -84.940192361847963 77.707205907375524 356.07450292316213 0.0000000000000000 0.0000000000000000 0.0000000000000000 0.0000000000000000 3.2899429071955657 3.5985883632370648 1.3089849088743721 1.1424454652142750 889.26927193361507 889.26924152886329 1.1440979121105490 
-41.394725936501700 -85.703521106271040 54.373191748609869 -41.394725936501700 -85.703521106271040 54.373191748609841 8.2741835536270383 2.4591121032975840e-05 1.5181091586385100e-05 -5.8238112020107329e-05 0.0000000000000000 2.3005018297131015e-07 -1.3364838500977188e-07 -5.3024686930044091e-06 -0.0034679803708297491 5.0246738741804179e-11 -1.4416697591666989e-10 5.0936933563569658e-10 0.0000000000000000 -40.313282635619565 -85.652866469445740 67.489144002613742 334.72004880612383 0.0000000000000000 0.0000000000000000 0.0000000000000000 0.0000000000000000 3.2772799492491957 3.5713654502810361 1.2943739090414212 1.1385570863833581 991.86306240725014 991.86302130787510 1.1376962386041791 
-44.044897363795791 -94.295277338747425 71.717914943772016 -44.044897363795798 -94.295277338747397 71.717914943772016 76.164658178239478 5.6943780126151382e-05 -2.4728781820112273e-06 -3.4303799861818968e-06 0.0000000000000000 -2.3199594703562650e-07 -3.3206103581658367e-07 -6.2916315711494025e-06 -0.0037237513549577303 -1.3416985475484507e-09 -1.2470055825977525e-11 -2.1607560205014232e-09 0.0000000000000000 -42.930125987095458 -94.071309017270835 83.274511392489799 283.94561953274422 0.0000000000000000 0.0000000000000000 0.0000000000000000 0.0000000000000000 3.2924458859688688 3.6042344178351824 1.3121521702906425 1.1423344457791687 886.82632801147702 886.82608691347900 1.1454967979649988 
-46.157502455281048 -99.261767938543954 54.996888619538915 -46.157502455281026 -99.261767938543940 54.996888619538893 63.882556494751618 0.00014417237670690940 -3.3519573533158188e-06 -0.00010442941704796424 0.0000000000000000 -4.0646996879445396e-10 -2.4723112446167758e-11 -5.3035434177672860e-06 -0.0037236108855923378 5.3806389198455049e-10 -1.1991358017590504e-09 2.0415766790500993e-09 0.0000000000000000 -44.946335306532468 -98.969717126470769 68.015559797458934 339.42980011114588 0.0000000000000000 0.0000000000000000 0.0000000000000000 0.0000000000000000 3.2885483595944196 3.5960511807129469 1.3078599002027220 1.1417466131225629 872.02339085958749 872.02400214701618 1.1436123628463981 
-36.627356296781429 -101.16483236729178 63.028072644621872 -36.627356296781414 -101.16483236729178 63.028072644621894 30.949247885185976 5.8867861942318027e-05 7.7504299669433686e-06 -2.8877280088777944e-05 0.0000000000000000 -2.6390632124156917e-07 -4.5886519527049034e-09 -5.4525639029606868e-06 -0.0037084538213521534 -1.0124930318446257e-09 2.8419413459310778e-10 -2.8910678245924433e-10 0.0000000000000000 -35.672109309640206 -100.83293553867907 75.360366609178811 338.44965823895870 0.0000000000000000 0.0000000000000000 0.0000000000000000 0.0000000000000000 3.2756783277461401 3.5678092892795279 1.2924087492068461 1.1389183666809874 952.36079025362756 952.36070534434452 1.1368386793909588 
-50.274957091743985 -112.49893003441433 52.109375253149736 -50.274957091743993 -112.49893003441433 52.109375253149743 62.030055320037924 0.00012119075613814966 -3.3843311236772277e-05 -3.1971743653812909e-05 107.48863586019841 -4.3600312249481027e-10 -4.2909453767947525e-11 -5.4074645809976118e-06 -0.0038113101385887035 -3.9385789903198302e-10 -5.8454441236922915e-10 7.9175413309276066e-10 -0.0042895798459002829 -48.975793059600008 -111.99207679200002 65.383142959360015 326.57209562220959 0.0000000000000000 0.0000000000000000 0.0000000000000000 0.0000000000000000 3.2790605564531128 3.5748540647176816 1.2960736809342335 1.1400765080132582 881.42902809177201 881.42945478497484 1.1384504924218724 
-26.020339190457324 -110.96381390554180 54.398083960440701 -26.020339190457324 -110.96381390554185 54.398083960440722 -23.172036085284475 2.0008380059726355e-05 -6.1405891992783346e-06 -3.8269854698710111e-05 0.0000000000000000 -2.6204238778859690e-10 -4.0800474110369578e-11 -5.3250943032878695e-06 -0.0034773654641989697 -8.4047628080616774e-11 1.4491258199788665e-10 -1.5293107139119555e-11 0.0000000000000000 -25.239536857883341 -110.48187134057846 67.469656361758609 349.35568362690350 0.0000000000000000 0.0000000000000000 0.0000000000000000 0.0000000000000000 3.2774112332485008 3.5717499507917827 1.2946323727055147 1.1383989164659962 1050.1302458949137 1050.1301980298256 1.1378201404778823 
-45.268009955990095 -111.76352116042938 64.251310018052180 -45.268009955990088 -111.76352116042931 64.251310018052195 57.439488499882586 4.8453083368329972e-05 -6.0803483542195054e-05 -2.1703097779328591e-05 0.0000000000000000 -4.0009040525035289e-10 -4.1900927172378033e-11 -4.9704782014714510e-06 -0.0037296371023611717 -3.4323809382742422e-10 4.6717792874651171e-10 -1.5013057113308976e-09 0.0000000000000000 -44.075852747763513 -111.26860156453857 76.452402029906395 268.59635586333832 0.0000000000000000 0.0000000000000000 0.0000000000000000 0.0000000000000000 3.2854142002698539 3.5891464575880434 1.3040602625166422 1.1419918223258789 922.69746896797267 922.69707797070453 1.1419525022667119 
-59.705908118009511 -107.09646195201148 95.928986692724820 -59.705908118009518 -107.09646195201142 95.928986692724763 50.724750471669971 -9.9643631406393184e-07 -3.0199946845386428e-05 3.6890820155013331e-07 0.0000000000000000 -2.8862591366095289e-07 -9.0382641151213361e-07 -6.2224368561692149e-06 -0.0030866114853145762 2.3337761782112641e-10 2.6014413383775004e-10 -6.3481102411962714e-10 0.0000000000000000 -58.254647241440821 -106.62760994408018 105.33920711112118 241.62621693813244 0.0000000000000000 0.0000000000000000 0.0000000000000000 0.0000000000000000 3.2764110424922430 3.5695673167358244 1.2934430498036888 1.1376703560469630 911.15018237777986 911.16084807025163 1.1372960961196652 
-66.012727295897065 -90.225921390641105 86.422574664647911 -66.012727295897079 -90.225921390641119 86.422574664647925 78.680670618195506 5.8357099595433692e-06 -3.9085705610723479e-05 1.9101335728655911e-05 0.0000000000000000 7.7205057155867526e-08 -4.8605253744807924e-07 -5.7665387079488511e-06 -0.0030064698222530425 -1.1077469722600899e-10 -3.2835800123885819e-10 1.1470997775623971e-09 0.0000000000000000 -64.370648572599308 -90.090304358695661 96.688480747766732 239.98138923263960 0.0000000000000000 0.0000000000000000 0.0000000000000000 0.0000000000000000 3.2878285869142148 3.5946183332440920 1.3071438870992791 1.1419954159547727 890.04517117175271 890.05971211325118 1.1433026800383639 
-77.784603852514465 -100.01022240720179 91.506657361401167 -77.784603852514465 -100.01022240720172 91.506657361401224 73.848644370193512 1.9898642138454031e-05 -1.5502757529922015e-05 -4.4020601932691554e-06 0.0000000000000000 3.7221811084445575e-08 -6.9155747557008259e-07 -5.6460862762622505e-06 -0.0031177432023341625 -1.8576893712185662e-10 1.9097083126048490e-10 -6.2495798727384899e-10 0.0000000000000000 -75.913673002404863 -99.702254402691466 101.32606574872912 288.13617662859207 0.0000000000000000 0.0000000000000000 0.0000000000000000 0.0000000000000000 3.2856658334229003 3.5901129380135481 1.3047971706633128 1.1414373205554467 892.94719111123493 892.85879952347011 1.1422774757707685 
-56.574888805711041 -93.821037249167460 93.714720547727907 -56.574888805711012 -93.821037249167460 93.714720547727950 69.931913553061335 4.1387495559428571e-06 1.1674738496696638e-06 1.6875601680743643e-05 0.0000000000000000 -9.4890879950873744e-08 -5.0152776743209344e-07 -6.1436501745394728e-06 -0.0030181284138389255 -6.7115324449019976e-11 -1.6545298557008163e-10 -2.8833482260816292e-10 0.0000000000000000 -55.164710769962618 -93.586508083202432 103.32606452766413 222.68531933077850 0.0000000000000000 0.0000000000000000 0.0000000000000000 0.0000000000000000 3.2843942025584592 3.5872645319427217 1.3032129609192653 1.1411746741264261 903.30675261982822 903.30408815998351 1.1415848003149447 
-46.991774763793018 -177.45674369488708 151.12268983785518 -46.991774763793039 -177.45674369488705 151.12268983785506 63.354400179012195 -1.6622910767069820e-06 1.7407841006607929e-05 -1.1724203961045115e-05 0.0000000000000000 -4.1245928894539924e-10 -1.3215295524560133e-10 -1.8439904252431916e-06 -0.0019490617321657883 -1.3666335502236915e-11 1.0576454400626268e-10 -3.2356951038969399e-11 0.0000000000000000 -45.762777822239421 -175.89580528354742 155.64915507299250 248.91339099022119 0.0000000000000000 0.0000000000000000 0.0000000000000000 0.0000000000000000 3.2804974337943098 3.5779614544620837 1.2977544944977191 1.1395302898483550 907.03126608203206 907.03126881423634 1.1391902980388016 
-52.788375432102399 -187.28320605990490 164.83901328973303 -52.788375432102391 -187.28320605990487 164.83901328973300 72.055570078883832 6.2797067018254394e-06 -4.9629584938602448e-06 -6.4699590150441168e-06 68.387991587243064 -4.5403603099458683e-10 -1.4565237904662356e-10 -1.3503420319693760e-06 -0.0018108297343752298 1.4108001111764442e-11 -5.2826933725045404e-11 -5.7898365016328340e-11 -0.0018096076057352482 -51.435495451599998 -185.56281141599996 168.15371392000000 294.81703600272857 0.0000000000000000 0.0000000000000000 0.0000000000000000 0.0000000000000000 3.2807942069343805 3.5789491999519281 1.2984595578543465 1.1395416400101237 888.08675172754363 888.08674982315335 1.1394997063614321 
-43.830980081434902 -172.66183581375515 162.76176821309062 -43.830980081434895 -172.66183581375520 162.76176821309070 71.363431485859536 5.9177328195070219e-06 -4.9752327524084338e-06 -1.4371791667481841e-05 0.0000000000000000 -3.7332632388013871e-08 2.8807256627151514e-07 -1.6628060123850349e-06 -0.0018377626553710746 4.6710210722701340e-11 6.1032228521655471e-11 -9.0841343797127822e-11 0.0000000000000000 -42.672974891599750 -171.18173466392949 166.26923354793541 271.88244999766295 0.0000000000000000 0.0000000000000000 0.0000000000000000 0.0000000000000000 3.2819456341365667 3.5812486366780787 1.2996055115883214 1.1397895286862911 890.11944146457506 890.11944059268035 1.1400022581501792 
-60.909169843177636 -179.61331701256225 153.42779464030207 -60.909169843177622 -179.61331701256225 153.42779464030215 72.993020822385930 1.6790954412092798e-05 5.6354358590474311e-07 -1.4233584517226866e-06 0.0000000000000000 -5.1227677655418802e-10 -1.3512035934581945e-10 -1.7610300417914004e-06 -0.0019373718951462907 -2.6017407349069175e-11 7.5839163299827635e-11 -1.1193100288993396e-10 0.0000000000000000 -59.382734921100123 -178.01738339707751 157.75061606229067 243.94852352315442 0.0000000000000000 0.0000000000000000 0.0000000000000000 0.0000000000000000 3.2819369717283973 3.5812052868762829 1.2995695091515709 1.1398026172676088 883.72473133203800 883.72473104650624 1.1399862836386492 
-31.527496854943948 -103.10892075835179 84.945956814792680 -31.527496854943937 -103.10892075835180 84.945956814792680 47.881981013610663 -3.4415499257398174e-06 1.8567841691423699e-05 -5.5272319909008411e-06 0.0000000000000000 8.6855144261770581e-08 -2.4378065389061318e-07 -5.1518797924684288e-06 -0.0032852736332449994 2.2816217816836279e-10 -1.1263111873264883e-09 1.0635984758650452e-10 0.0000000000000000 -30.660097366607719 -102.72526557899965 95.328291536857705 204.58703120518373 0.0000000000000000 0.0000000000000000 0.0000000000000000 0.0000000000000000 3.2808080657302257 3.5780011868505892 1.2974666771260275 1.1386819409509898 916.88244318538671 916.88236634989255 1.1390636199059838 
-19.444486935213519 -111.39488884708295 82.790811501650722 -19.444486935213504 -111.39488884708302 82.790811501650737 18.147675372142228 3.2839928992686050e-05 -6.2856370837373824e-06 -3.0155828640139390e-05 0.0000000000000000 -2.1487772672301730e-10 -4.1387560045791361e-11 -4.3032443493018482e-06 -0.0032351810999800617 -6.7712531853559879e-10 -2.4645162929150523e-11 1.1390874663686486e-10 0.0000000000000000 -18.804221549666405 -110.90595113131390 93.354036648627854 267.24800799435923 0.0000000000000000 0.0000000000000000 0.0000000000000000 0.0000000000000000 3.2769633635627469 3.5699278214812824 1.2932275678490590 1.1380966575594400 970.44273806761419 970.44274450647310 1.1372007665231936 
-34.724242456854874 -105.13795790852758 73.604045897019247 -34.724242456854874 -105.13795790852751 73.604045897019219 40.295235619136179 5.0340675407022237e-05 -2.8256700557588016e-05 -1.6070007388150398e-05 0.0000000000000000 2.0979288998856477e-07 -1.0980493154369691e-07 -5.3832268401953516e-06 -0.0033080039994393684 3.5598569704198771e-10 -1.4657827920181098e-11 5.2236286843475767e-11 0.0000000000000000 -33.815892125380543 -104.71065599625929 85.007910193808286 270.69679205096202 0.0000000000000000 0.0000000000000000 0.0000000000000000 0.0000000000000000 3.2794050312621477 3.5757366489044906 1.2966222725842829 1.1391547225185035 931.06917700043425 931.06915198449235 1.1386870767494479 
-19.564003373758048 -100.69498916131144 85.032917012413620 -19.564003373758052 -100.69498916131145 85.032917012413634 34.336737490884403 2.4513334451525503e-05 -1.9377054609787230e-05 6.7383317015588038e-06 0.0000000000000000 -2.1573492992033044e-10 -2.6688207199754288e-11 -4.2225513148252958e-06 -0.0030641178731921162 -3.4007170290730392e-10 -2.0338712142884837e-10 -9.1978673373999405e-11 0.0000000000000000 -18.921183722278450 -100.37968114352928 95.398064000337470 185.31956687594098 0.0000000000000000 0.0000000000000000 0.0000000000000000 0.0000000000000000 3.2805359141131372 3.5780259283332052 1.2977816874885628 1.1389582449562807 956.46498088090834 956.46500512569060 1.1392026505800890 
-32.027439800530374 -118.58232869043890 170.37415122626243 -32.027439800530374 -118.58232869043890 170.37415122626237 71.231962531604793 1.3672417069849740e-05 3.2211181620470711e-05 -3.1389313641630483e-05 0.0000000000000000 -3.2960298727731877e-07 -2.1763964437156974e-08 -1.3895660628712752e-06 -0.0020454015055396042 -9.1307002837956237e-11 -5.8032859581471563e-11 -9.3380993114137447e-11 0.0000000000000000 -31.124431206993112 -117.97934695114738 173.21200361760444 258.17126679857051 0.0000000000000000 0.0000000000000000 0.0000000000000000 0.0000000000000000 3.2820226298057422 3.5812012701467681 1.2994751311782196 1.1400579589991913 888.49885566978253 888.49909924199630 1.1399437344773451 
-31.539607951229240 -133.99020416001463 161.15660218666520 -31.539607951229215 -133.99020416001451 161.15660218666528 64.551043185432675 -1.4096413101487420e-05 1.1365137489667928e-05 -8.1770519133787266e-06 0.0000000000000000 -3.9477160364439013e-07 1.1654876117675367e-07 -1.6908584767156237e-06 -0.0019277200201785326 -2.5474045791530222e-10 1.3197294851018952e-10 -3.7238454646137477e-12 0.0000000000000000 -30.642131568542830 -133.13454878399213 164.80820313575899 262.24283076768535 0.0000000000000000 0.0000000000000000 0.0000000000000000 0.0000000000000000 3.2808769950618175 3.5787287855077783 1.2981413625324316 1.1391330004696414 900.31485425994572 900.31475334309550 1.1393596376648951 
-43.815600864079101 -120.76402970891907 159.92786468507410 -43.815600864079094 -120.76402970891910 159.92786468507404 62.633802940646959 1.9176391866734955e-06 -2.2817320978694492e-05 -2.0791443793182075e-05 0.0000000000000000 -5.7186998473290017e-07 -2.2154757361571086e-08 -2.3297526935293151e-06 -0.0021539068632317883 -1.8847936315934927e-10 -3.6424020981948709e-10 9.6400985831264860e-10 0.0000000000000000 -42.676694985445003 -120.10595080876966 163.70375490782192 268.28772502602959 0.0000000000000000 0.0000000000000000 0.0000000000000000 0.0000000000000000 3.2767484788692416 3.5700232564750261 1.2935551238612453 1.1389702550823766 902.66701767402003 902.66807198221090 1.1373468648648066 
-24.495538114924514 -114.77780044688384 157.88359662010726 -24.495538114924525 -114.77780044688380 157.88359662010731 52.314308412374864 4.1018605472865036e-06 5.9583864905782375e-06 -2.4058057388204795e-06 0.0000000000000000 -2.5110546975071197e-10 -4.6042503143439717e-11 -1.6006664083079158e-06 -0.0019526607378303564 -2.9251027306732427e-11 9.2250755278970378e-11 -3.1885349303525359e-11 0.0000000000000000 -23.747323328369049 -114.23396745764113 161.81277151251504 321.01516800445251 0.0000000000000000 0.0000000000000000 0.0000000000000000 0.0000000000000000 3.2786750396891486 3.5740452714428987 1.2956536747004466 1.1385206928768477 919.37924068021653 919.37935965383690 1.1382677840675086 
-6.8342107068873803 -105.37886713149136 100.31658355775163 -6.8342107068873794 -105.37886713149140 100.31658355775160 44.709463134050857 8.5091389586240012e-07 -1.1080871409295386e-06 -1.0334319718913787e-05 56.421640008877723 -1.2442954999691833e-10 -3.3127278697975271e-11 -3.6724944756372228e-06 -0.0023420966206475565 2.9671786870238042e-11 -1.5222390196064805e-11 -5.5532693136213109e-10 -0.0021446363049145807 -6.4634479885999987 -104.98755276399999 109.33149947120000 327.67017865987640 0.0000000000000000 0.0000000000000000 0.0000000000000000 0.0000000000000000 3.2808019502759369 3.5787963947464334 1.2982921262987968 1.1391027224884529 920.44784624779322 920.44783405231874 1.1394266647156395 
-12.294292214652279 -97.378369010276728 91.657810647269173 -12.294292214652277 -97.378369010276728 91.657810647269159 36.081548880544837 9.5834047085312321e-06 -1.7271301742134989e-05 -2.6573257408539008e-05 34.198326601951344 -1.6359186227887790e-10 -2.2139401423260097e-11 -3.9841223937742151e-06 -0.0027893570491121017 -8.3091428926554012e-11 6.8496290316569517e-11 -4.2974704093179320e-10 -0.0027400262795805631 -11.806838433999999 -97.116880539599975 101.43768333439998 212.90238721710071 0.0000000000000000 0.0000000000000000 0.0000000000000000 0.0000000000000000 3.2813926037135408 3.5801979413633092 1.2991096573740302 1.1393489608709180 955.48003915700269 955.48003360001007 1.1397854385417445 
-16.425345938674152 -110.84003679742837 93.478392791343680 -16.425345938674145 -110.84003679742837 93.478392791343651 30.901847592240923 -4.7425255164941621e-06 -6.3136452601175608e-06 -5.5776959937844860e-05 0.0000000000000000 -1.9322005107014206e-10 -4.0625058872478797e-11 -3.9185999227697721e-06 -0.0026684253879435006 1.6120146357727381e-10 -7.1204986865928848e-11 -8.5109070556795445e-10 0.0000000000000000 -15.849604639409371 -110.36010279166017 103.09742667861765 236.22178992679409 0.0000000000000000 0.0000000000000000 0.0000000000000000 0.0000000000000000 3.2785464808407094 3.5739402996382652 1.2956835321709983 1.1384964321568118 951.88254119660405 951.88254183849267 1.1382801100021778 
-24.497842693642713 -99.835574562304799 92.583778621363905 -24.497842693642720 -99.835574562304814 92.583778621363933 46.415540492004801 9.8693686016630030e-06 -1.1882050631543660e-06 -2.2877378488252585e-05 0.0000000000000000 -2.5112023571693953e-10 -2.5517810087194448e-11 -3.9507969518126629e-06 -0.0028025877275751634 -3.6806138052344802e-10 3.1786076820499046e-10 -8.6518498918572517e-10 0.0000000000000000 -23.749578654390465 -99.534212460059550 102.28184693721489 211.57004919854941 0.0000000000000000 0.0000000000000000 0.0000000000000000 0.0000000000000000 3.2783623184693345 3.5733706993027989 1.2952907892192060 1.1385566021052391 922.32291612433721 922.32292285835467 1.1381082910369817 
-55.443887666450657 -108.88330679667756 105.24017704571435 -55.443887666450657 -108.88330679667753 105.24017704571433 30.616477751694841 -4.4965115923180471e-06 -4.8489325686688863e-05 2.9698171366878278e-05 0.0000000000000000 -5.3301458283799540e-07 -7.6044971724469860e-07 -5.9321146168378943e-06 -0.0031706274998196627 8.4416895048342055e-10 -6.7264138778347913e-10 1.7299398012934268e-09 0.0000000000000000 -54.087034329299712 -108.37170302860723 113.84396407125838 191.01171882188567 0.0000000000000000 0.0000000000000000 0.0000000000000000 0.0000000000000000 3.2679554607124128 3.5512393815707530 1.2835306691356232 1.1342329638810769 929.01824319687842 929.01659434427484 1.1329292094048140 
-42.789975731743048 -108.24429618038693 102.09786481626793 -42.789975731743041 -108.24429618038690 102.09786481626800 40.107070963186523 6.7461121828099660e-06 -3.4939140559999538e-05 6.9225110725993797e-06 0.0000000000000000 -6.4705059347315604e-07 -2.2056059152466937e-07 -5.6898730171040192e-06 -0.0026285403153350514 -5.0942622308825688e-10 5.2610996861808408e-10 4.0849370466354306e-10 0.0000000000000000 -41.690910404717421 -107.74885629568415 110.97670241767709 270.34727434602189 0.0000000000000000 0.0000000000000000 0.0000000000000000 0.0000000000000000 3.2743784295452842 3.5650895872517765 1.2909879183368083 1.1363023745391401 922.02055925879279 922.02034009784234 1.1362160604268292 