# For a description of the Tecplot format see the Tecplot User's guide.
#
Variables=x,y,z,s_u,s_v,s_w,s_p,mono_f_vel_u,mono_f_vel_v,mono_f_vel_w,const,u_nu,v_nu,w_nu,p_nu,x_nu,y_nu,z_nu,const,u_ref,v_ref,w_ref,vol_ref,x_ref,y_ref,z_ref,const,I1,I2,I3,J,p1,p2,p3
Zone f=fepoint, n=3174, e=16683, et=brick, c=black
-25.8662 -155.656 101.172 -25.866226650549830 -155.65551943470123 101.17198156274100 15.390943642247002 9.7751682366035631e-06 -8.2218493695342804e-05 0.00012055732964647616 91.027613020848776 6.3379002046559663e-10 2.4841351198290340e-10 8.7529420689236304e-06 0.025249344656049506 -4.2289027785606668e-08 -6.2857102229484785e-07 -1.6946073927087430e-07 0.049837132190151262 -24.903554063199991 -154.16086777200002 112.24023381839994 89.724962256112903 0.0000000000000000 0.0000000000000000 0.0000000000000000 0.0000000000000000 3.3586453463302770 3.7444675412919528 1.3864000815442059 1.1843232293973152 1814.1234961911907 1814.1042784435738 1.1775017510403576 
-38.826037594739198 -156.47406796502165 104.15798989901654 -38.826037594739198 -156.47406796502167 104.15798989901656 -3.9975646682867612 3.7764885987264937e-05 6.3066765496129899e-05 -2.0670199013416884e-06 0.0000000000000000 -0.00012955140934213210 0.00028128060100232009 5.8320789400071598e-06 0.0074582687572412173 -6.8699651035136638e-08 -1.8817656760161568e-07 7.0245363361218376e-08 0.0000000000000000 -37.438273663334591 -155.10473791080037 114.93291110338620 89.036758072416930 0.0000000000000000 0.0000000000000000 0.0000000000000000 0.0000000000000000 3.4024717817987429 3.8456114444099438 1.4441973561435268 1.1994514956527307 2093.5272273882383 2093.5308653337052 1.2017359649633097 
-32.685745770775647 -149.24492476327421 109.72911263915503 -32.685745770775632 -149.24492476327430 109.72911263915509 -23.405691389015747 -1.3395823830127819e-06 0.00014878788453053779 9.7036595003857962e-05 0.0000000000000000 7.5259665166527167e-10 2.2699686574867428e-10 8.0127285002618009e-06 0.0020852500692148989 -3.8901939174421366e-08 2.6878537275884137e-07 3.4088102790684680e-07 0.0000000000000000 -31.542619574254449 -147.87907313389167 119.86135157363466 98.260374494724786 0.0000000000000000 0.0000000000000000 0.0000000000000000 0.0000000000000000 3.3840451887724501 3.8035169838277096 1.4202596066403526 1.1923387519824307 2095.3417254616438 2095.3425621704737 1.1916066044460176 
-29.712095197484608 -144.23252536458168 101.04205701530196 -29.712095197484594 -144.23252536458173 101.04205701530192 -12.924109621073628 -0.00020936335503887797 0.00010061705407964330 0.00010812152106956391 0.0000000000000000 7.0078753910962632e-10 2.1026358432152395e-10 8.7641808761418361e-06 0.085574898670617891 -5.0981160023109379e-07 3.2091386090574536e-07 -6.6899613603595793e-08 0.0000000000000000 -28.647655777685479 -142.96738158566356 112.12452093910819 112.69127588814607 0.0000000000000000 0.0000000000000000 0.0000000000000000 0.0000000000000000 3.3905135626654332 3.8164796672548706 1.4266981065178854 1.1968778875529611 2065.4171844517964 2065.4198265320742 1.1943173857113540 
-25.207091176334689 -202.87554404724131 57.928105618563606 -25.207091176334693 -202.87554404724131 57.928105618563613 -1257.5273946291570 -0.00011551656009955881 7.1454612069852467e-05 -9.6230430281346230e-05 -1191.8248796608834 6.2230764985571330e-10 4.0608960638621743e-10 1.2493647091105229e-05 0.0098259981514083970 6.5493265658396661e-09 -1.5017694668912468e-08 1.0494738382172056e-08 0.015813025032127628 -24.261860196399997 -200.43215969199997 73.726546483199982 142.71380061529433 0.0000000000000000 0.0000000000000000 0.0000000000000000 0.0000000000000000 3.3571841255441899 3.7418208101353025 1.3852319443819638 1.1769849062063573 3977.2400796503384 3977.2399238417242 1.1769570003342167 
-25.099789393863290 -189.82015654694948 59.705904096745300 -25.099789393863290 -189.82015654694945 59.705904096745300 -1300.6823958805558 0.00011836899303407334 3.9455372129901737e-05 7.4710709541342654e-05 -1318.4631387716656 6.2043570281389283e-10 3.6249958590417464e-10 1.2339863008747894e-05 0.0010517302483932559 2.5376863766353412e-08 3.3650884994412692e-09 4.0964153781913120e-09 0.018132069663219060 -24.157397762799999 -187.63907770800003 75.309882232799993 165.73632395326644 0.0000000000000000 0.0000000000000000 0.0000000000000000 0.0000000000000000 3.3572170014187863 3.7417925442547171 1.3851629592247359 1.1769849062063584 4166.1503837171012 4166.1504900803475 1.1769235128790159 
-36.119531026368129 -197.75176768294983 66.764835181263791 -36.119531026368129 -197.75176768294997 66.764835181263777 -1235.5006475574814 6.8849314010724409e-05 -6.1809321948801674e-05 -1.3932402785535326e-05 0.0000000000000000 8.1241435800905037e-10 3.8900238585881658e-10 1.1729247557212830e-05 -0.020697836957129880 -2.7889767638496763e-08 7.5361719782904093e-08 1.1269420575003812e-07 0.0000000000000000 -34.885542273181727 -195.41132893576267 81.596679120775832 139.46796289390394 0.0000000000000000 0.0000000000000000 0.0000000000000000 0.0000000000000000 3.3571304488778146 3.7418927645563005 1.3853712718431843 1.1755279451803420 4050.7158094519086 4050.7160756126946 1.1770274162174723 
-19.619989754606006 -196.85206209361041 66.558546360297612 -19.619989754606010 -196.85206209361050 66.558546360297655 -1279.6611236114379 -4.4349191426944280e-06 0.00028115249957871868 0.00018742366454249364 0.0000000000000000 5.2497128866235698e-10 3.8599679008655135e-10 1.1747092067082576e-05 0.0094841091656504804 -3.3298605738259099e-09 2.6170184889839387e-09 -2.6947793757107673e-10 0.0000000000000000 -18.822600960987238 -194.52970000168264 81.412954998504986 111.95285379220412 0.0000000000000000 0.0000000000000000 0.0000000000000000 0.0000000000000000 3.3578363948416596 3.7431263901449978 1.3858836819521543 1.1769849062063595 4183.6356368423039 4183.6357120897746 1.1772382690954688 
-23.565781809925586 -103.65783683630009 23.695770566296048 -23.565781809925589 -103.65783683630011 23.695770566296048 -411.86166406908876 -7.5051300775660166e-05 0.00014080705078966884 -0.00012976844783878260 -444.73276547818847 5.9371374483419004e-10 7.4773742753109218e-11 1.5454830961658672e-05 -0.077359334922205397 1.2561190250369056e-08 -1.7497818387507929e-08 1.9642245310181043e-08 -0.073153382073259929 -22.663982073999996 -103.20790935200000 43.238681550399988 69.202643319072678 0.0000000000000000 0.0000000000000000 0.0000000000000000 0.0000000000000000 3.3572240139179041 3.7418918367235352 1.3852627616489448 1.1769849062063589 2638.5224375027974 2634.5440645925660 1.1769719314779137 
-31.256979822408770 -111.37814897088656 27.906423069058640 -31.256979822408770 -111.37814897088653 27.906423069058636 -369.78123169192986 -3.5243516627113588e-05 0.00012656207804311360 -0.00011251282943428141 -331.53647611846628 7.2770256487331153e-10 1.0056377952594174e-10 1.5090598832756541e-05 -0.081629905924250803 1.9411985616367279e-09 -1.2105064992365845e-08 6.1657668188561112e-09 -0.090531001457848079 -30.151660686400003 -110.77310694400001 46.988755992800002 74.715282964229786 0.0000000000000000 0.0000000000000000 0.0000000000000000 0.0000000000000000 3.3572052108687096 3.7418520838265459 1.3852418411218517 1.1769849062063591 2499.2915169039074 2505.1310391192865 1.1769630834442317 
-19.530162148866527 -104.02433948199241 31.296956529322127 -19.530162148866530 -104.02433948199244 31.296956529322127 -344.34760275733476 -7.4123591190822054e-05 8.5511959914803937e-05 -0.00011689788230417214 -348.11655976361902 5.2340864975519697e-10 7.6002537596764341e-11 1.4797309081160392e-05 -0.084153829482444986 5.6050363203055291e-09 -4.7671633369161705e-09 1.0830568592989680e-08 -0.085526954191556634 -18.735150314000002 -103.56704831999998 50.008419303199993 79.719497061372692 0.0000000000000000 0.0000000000000000 0.0000000000000000 0.0000000000000000 3.3572246874536753 3.7418848303013377 1.3852547300158096 1.1769849062063589 2488.7021199972014 2486.0602350596496 1.1769682247349726 
-26.470542835094015 -98.840732639610110 32.390378014659881 -26.470542835094005 -98.840732639610053 32.390378014659866 -364.28659965699302 -1.2677460584824116e-05 3.8645391573275805e-05 -0.00021318184098324667 0.0000000000000000 6.4431604496206774e-10 5.8695714955092626e-11 1.4702725351867230e-05 -0.083563388071208541 -4.1857841742468559e-09 -4.3040132334917804e-09 1.5514660553302370e-08 0.0000000000000000 -25.491879232152165 -98.487589184379729 50.982237960580505 72.292163684038698 0.0000000000000000 0.0000000000000000 0.0000000000000000 0.0000000000000000 3.3573630088141888 3.7421994536938956 1.3854323158485014 1.1769849062063584 2550.8300072190341 2557.3520804162308 1.1770436862797522 
-26.655115038589006 -104.40239557851494 97.360095453378619 -26.655115038589006 -104.40239557851497 97.360095453378577 -214.70395796854018 -0.00010510531473724452 0.0010066930302891457 -0.00092433234928599567 0.0000000000000000 -0.00058131565005620884 2.8132769133175732e-05 -3.0269280719953879e-05 -0.49106892433313382 -2.1756954068222520e-06 -2.1435829839014581e-06 8.7107206533797515e-07 0.0000000000000000 -25.283559732051039 -104.23282252886388 108.75695162467670 96.378087069502698 0.0000000000000000 0.0000000000000000 0.0000000000000000 0.0000000000000000 3.4336794194576052 3.9071907129905026 1.4733691927863781 1.2077594170167434 2410.3293425829911 2410.3292892106456 1.2134936807187944 
-27.255091486619268 -118.37065017610574 99.498197900622884 -27.255091486619254 -118.37065017610574 99.498197900622912 28.431308059556891 0.00033868000745775772 -0.00069077386583406882 -0.00067910504867437860 0.0000000000000000 -0.00041812702662037666 0.00069113880221342383 0.00041710706223612289 -0.28180202970692692 -4.0767940288463984e-07 2.2454011582238094e-07 4.2788664819729517e-06 0.0000000000000000 -25.913646985361510 -118.01095136745833 110.66456878241424 88.846747377876298 0.0000000000000000 0.0000000000000000 0.0000000000000000 0.0000000000000000 3.4891988876180458 4.0379255919476726 1.5489922604249333 1.2233283549337202 2162.2546521067775 2162.2547575772533 1.2453736426319544 
-38.520408345271179 -112.13566911572782 101.25099609153231 -38.520408345271179 -112.13566911572788 101.25099609153226 -733.83629104696581 -0.0031923223414523183 0.00016189202226890665 0.00017574448515964857 0.0000000000000000 -0.00046192642662584374 0.0012284096564992573 0.00049971363943023201 -1.2209861913704485 1.5842203365335430e-06 3.4346938681757438e-06 3.8022673629638413e-06 0.0000000000000000 -36.236867317722961 -112.72601430119678 112.03758904139967 95.996160021407249 0.0000000000000000 0.0000000000000000 0.0000000000000000 0.0000000000000000 3.2980221759448787 3.6086724643754176 1.3092951881045378 1.1517273233764413 2858.7658969637691 2858.7659857337262 1.1425056004824590 
-35.394575862712557 -104.81037545345961 94.351195942217061 -35.394575862712571 -104.81037545345956 94.351195942217103 -305.43915214017801 -0.0012257956186224543 0.00071307072024336473 0.0019391410673794179 0.0000000000000000 -0.00047423908746205230 0.00065043295117341710 -1.5415540074583539e-05 -2.3309615908155079 -2.0860501175034230e-06 1.9486056712526909e-06 -9.8198413161363765e-06 0.0000000000000000 -33.380789828628046 -105.09637623893835 105.63342596379557 85.433794965156210 0.0000000000000000 0.0000000000000000 0.0000000000000000 0.0000000000000000 3.4109555451224760 3.8519549477964392 1.4405738736164677 1.1846582604169500 1954.9667237121923 1954.9667098668672 1.2003869015724715 
-115.55539030459981 -162.29145886953941 115.12191887861324 -115.55539030459978 -162.29145886953941 115.12191887861326 -129.66008225276860 -9.1196082368624503e-06 3.3911952891631243e-05 -6.1638249839210762e-06 -122.87346413176623 2.1962877072567721e-09 2.7058022489256922e-10 7.5462370858758732e-06 -0.089622800880486075 7.5100006141830018e-09 -4.2343306934137814e-08 1.1159008558405334e-07 -0.081776742855698165 -112.21942232800005 -160.66347960400000 124.66427103520003 147.55923210393107 0.0000000000000000 0.0000000000000000 0.0000000000000000 0.0000000000000000 3.3494246198348923 3.7241280763806155 1.3752249046855685 1.1769849062063573 2092.1311132929504 2092.1317973685536 1.1727374942997479 
-102.52375081382208 -159.66999851198622 106.05018653941491 -102.52375081382208 -159.66999851198619 106.05018653941490 -105.92147827089961 -1.7817532149350239e-05 -5.8773266743911215e-05 9.5979211262395988e-05 0.0000000000000000 1.9692519837022356e-09 2.6181212753328964e-10 8.3309649525631357e-06 -0.087088483664808161 5.8236670900326892e-08 2.6748059674720916e-07 1.0506722368409372e-07 0.0000000000000000 -99.532617471171264 -158.09468895943013 116.58484116745363 117.70414803503969 0.0000000000000000 0.0000000000000000 0.0000000000000000 0.0000000000000000 3.3769996505978570 3.7863885057823450 1.4101439680333170 1.1864955937143129 2161.0182157007803 2161.0155989755713 1.1874547690242399 
-107.46443296197954 -150.24084113984298 110.88607488831067 -107.46443296197957 -150.24084113984293 110.88607488831073 -120.48052972466954 -7.8822979280200247e-06 4.1278658957144981e-05 0.00030702127345103117 0.0000000000000000 2.0553306834258937e-09 2.3032709073333988e-10 7.9126483356617427e-06 -0.12265159312816042 8.3697088745006121e-08 -1.1104205644111526e-07 -2.0522722499345906e-07 0.0000000000000000 -104.34256255272837 -148.85497981259945 120.89176065121424 119.29379793442074 0.0000000000000000 0.0000000000000000 0.0000000000000000 0.0000000000000000 3.3756686548128880 3.7841362048989859 1.4092333915025574 1.1878272033373751 2207.8518394671778 2207.8529230324207 1.1870806020028188 
-103.54866360245524 -163.94424126571664 115.01361675676630 -103.54866360245524 -163.94424126571664 115.01361675676627 -121.31200731387545 -1.2297589495594241e-05 1.1518530083551091e-05 1.2956928580912223e-06 0.0000000000000000 1.9871119194547759e-09 2.7610957964441241e-10 7.5556054923708871e-06 -0.088400380350394797 -4.1603333808303718e-08 1.6940423811757566e-08 -1.9829627577357780e-08 0.0000000000000000 -100.53040969477119 -162.28305471776312 124.56781543385799 141.51484144144280 0.0000000000000000 0.0000000000000000 0.0000000000000000 0.0000000000000000 3.3657227065761601 3.7611346521779629 1.3960722600445619 1.1827456119390334 2137.6821454098822 2137.6822048959298 1.1815451015053955 
-80.817278590153791 -150.18211949492911 75.580699587954328 -80.817278590153805 -150.18211949492911 75.580699587954328 -168.51931715175098 -0.00015408407950554898 0.00012528691458816004 -6.2328694544129597e-05 -121.40516337281700 1.5911033601767597e-09 2.3013746464073390e-10 1.0966652908450669e-05 -0.085111775320350899 -1.8223628078016994e-07 3.2139398166901011e-07 -1.0617340816998259e-07 0.051510147888819031 -78.400527573600002 -148.79743798799998 89.448228916799977 108.06316173413846 0.0000000000000000 0.0000000000000000 0.0000000000000000 0.0000000000000000 3.3534301540844003 3.7325702405805803 1.3796348020728408 1.1769849062063609 2141.4962217649331 2144.1322765851064 1.1746031182447059 
-82.613648663333862 -164.20098938162280 73.699732684826785 -82.613648663333848 -164.20098938162283 73.699732684826799 -176.94866930722043 9.9798784790299690e-05 -0.00011669242085712764 3.1123379103924556e-05 -191.48990721398727 1.6223992149733135e-09 2.7694002646683202e-10 1.1129361318751307e-05 -0.065396281881016274 3.7521605047025343e-08 -8.0434960624941351e-08 2.7082114956450950e-08 -0.042701593468203937 -80.149363288800018 -162.53464431600008 87.773009718400019 109.57810873427631 0.0000000000000000 0.0000000000000000 0.0000000000000000 0.0000000000000000 3.3590246395152601 3.7460664085539097 1.3876669382485358 1.1769849062063591 2166.2757789462989 2150.2153475253863 1.1779914191729499 
-86.872457780324169 -161.80259042204014 81.784233296371582 -86.872457780324126 -161.80259042204025 81.784233296371596 -200.84150048388327 -0.00011179733701799758 -1.1379589876723387e-05 -1.0599565200981996e-05 0.0000000000000000 1.6965985283334815e-09 2.6894153570822255e-10 1.0430031498032122e-05 -0.069664266692919849 -3.7254710872543249e-08 -2.8494273169468427e-08 1.6217076466948576e-07 0.0000000000000000 -84.295478612813938 -160.18443337667750 94.973195224810283 106.11323630727971 0.0000000000000000 0.0000000000000000 0.0000000000000000 0.0000000000000000 3.3587306711309748 3.7462240183572386 1.3881446213361379 1.1769518093583600 2262.2298329158784 2265.0106805169485 1.1781879862478379 
-89.110203601714488 -152.82799079429560 79.158286344235194 -89.110203601714545 -152.82799079429560 79.158286344235194 -257.95149561197087 -0.00030903652331094525 9.6412666962357194e-05 -9.2545044354785513e-05 0.0000000000000000 1.7355740178359724e-09 2.3897706036279942e-10 1.0657182578199809e-05 -0.10412174444587090 -1.4653174593335411e-07 1.4343652654868424e-07 8.8728316802101575e-08 0.0000000000000000 -86.474010682800568 -151.39014911596544 92.634484883397832 94.367740677547317 0.0000000000000000 0.0000000000000000 0.0000000000000000 0.0000000000000000 3.3467148057335980 3.7186096867677727 1.3723996212215470 1.1758861409314008 2323.5447931619788 2326.5541161235137 1.1715239829570760 
-27.011638242089582 -133.48000193220619 130.81931673809305 -27.011638242089585 -133.48000193220622 130.81931673809302 50.462600600963455 5.4169219258370177e-05 -0.00023283417982488739 0.0013894871456645969 184.39312255647377 6.5374383684257974e-10 1.7436074806198576e-10 6.1883723283528980e-06 0.61160892882187556 1.7076600491587605e-07 -5.5809811876384484e-07 4.3810054080976589e-06 0.64824802018596539 -26.018656529999991 -132.43089511199997 138.64462455200004 49.421240865332216 0.0000000000000000 0.0000000000000000 0.0000000000000000 0.0000000000000000 3.3472537991363231 3.7226819747003081 1.3766262452100049 1.1864279772274329 1580.8601885805767 1580.8600356404388 1.1733160659004620 
-33.664471504627365 -135.03720710951265 129.64970558687247 -33.664471504627379 -135.03720710951259 129.64970558687250 -1.8519454049752502 -0.00034284950761182242 -0.00023293217554325234 1.1241215570698976e-05 -760.80205713867008 7.6964401518608838e-10 1.7957968445614372e-10 6.2895466683698950e-06 0.32880908992521229 -9.9229218570273955e-07 -5.8345837992898191e-07 1.4965476834005128e-06 2.2280229629902188 -32.495446914399992 -133.95681332000001 137.60295016000006 48.530522504776933 0.0000000000000000 0.0000000000000000 0.0000000000000000 0.0000000000000000 3.3839867772089907 3.7976955956540066 1.4131770066022999 1.1923221683465655 1987.2685207262257 1987.2675954346639 1.1882413746122078 
-29.476406641350717 -137.57006033866870 132.68925846479996 -29.476406641350710 -137.57006033866872 132.68925846479993 -35.775470722287508 0.00016023204321662389 0.00025010237019493697 -9.5060109972323243e-07 -67.412703689960068 6.9668337765449461e-10 1.8802803758433126e-10 6.0266176333811927e-06 0.13382604193127956 7.7140578074025877e-07 4.6950923679227867e-09 -1.9419565818574293e-08 -0.31717741388465287 -28.418203856399998 -136.43877710800004 140.31002455199999 44.353383947079159 0.0000000000000000 0.0000000000000000 0.0000000000000000 0.0000000000000000 3.3517234275592434 3.7299767410710563 1.3788463616971820 1.1774388044211865 1929.4191762785460 1929.4221021008673 1.1741700642851358 
-27.781724723054275 -130.49078536792553 136.66213775175521 -27.781724723054264 -130.49078536792555 136.66213775175524 -137.59126182803334 -9.7728635823226856e-05 0.00029454400814139521 9.7732261700372817e-05 0.0000000000000000 6.6716088209517466e-10 1.6439583028216023e-10 5.6829534784696997e-06 0.070216573157080978 -6.3740553998767176e-07 2.5404377421491560e-07 -8.8623998373564313e-08 0.0000000000000000 -26.768365491316434 -129.50173712462359 143.84833436668455 49.139845408488213 0.0000000000000000 0.0000000000000000 0.0000000000000000 0.0000000000000000 3.3986969442096666 3.8346336338730409 1.4366611121800690 1.1902493905869251 2511.9943354650868 2511.9967680028717 1.1983711538707740 
-41.443633561945425 -65.152356182612280 148.00826987599720 -41.443633561945418 -65.152356182612280 148.00826987599720 -658.25057136019143 0.0011324994813803463 8.5761082942576358e-05 -0.0021250536931526624 81.336182196384001 9.0516916184668617e-10 -5.3807625022272993e-11 4.7014842614601093e-06 0.56186238673712730 4.5285605946735082e-06 3.3598457774152181e-07 -6.3651933417462690e-06 3.4456087742892461 -40.068761925200000 -65.476070995999990 153.95338104800004 156.95717166164070 0.0000000000000000 0.0000000000000000 0.0000000000000000 0.0000000000000000 3.4399880290827749 3.9197525026931075 1.4805088616308100 1.1870709101352657 2749.6741928348483 2749.6892292762177 1.2176560970453623 
-54.137526962407804 -59.212723878268953 142.74273836659782 -54.137526962407826 -59.212723878268967 142.74273836659785 -962.18607556647657 0.0016905824266720824 0.0010044209226886937 -0.0042112573395818049 -263.70168834690088 1.1263122656757221e-09 -7.3640205044966920e-11 5.1569660968198150e-06 -2.1021671095104155 -1.1514343927642944e-05 -1.4755630484698554e-06 1.1278592432564768e-05 -4.6177708104564834 -52.426757905599978 -59.655776269200025 149.26381449600007 118.05125250056595 0.0000000000000000 0.0000000000000000 0.0000000000000000 0.0000000000000000 3.3917059977097943 3.8165483506761553 1.4254660578377778 1.1834366601411799 3613.5396393076303 3613.4401250262599 1.1935738871413817 
-36.414717032649520 -65.717408235969671 137.95478997419937 -36.414717032649506 -65.717408235969657 137.95478997419940 -1924.2973256120752 -0.00066132784391404495 0.00080951039432058719 -0.0019498287821206708 -1997.5787407848040 8.1755935354976838e-10 -5.1920912014225002e-11 5.5711357944687734e-06 0.50087663940426030 4.2784801629720979e-07 -1.1196085510164884e-06 1.9380569225967495e-06 0.17333071693285901 -35.172917262399999 -66.029770167599992 144.99959110400002 155.12084301790807 0.0000000000000000 0.0000000000000000 0.0000000000000000 0.0000000000000000 3.3174242715764897 3.6593656047009424 1.3423470768785892 1.1637868151388036 6091.7331567660676 6091.7466023437973 1.1579584848236024 
-52.068857538076301 -66.289255669605382 134.81525448337496 -52.068857538076294 -66.289255669605382 134.81525448337501 -2009.4103908246386 0.00098965524818939057 0.0036673660710287667 -0.0056609817231111628 0.0000000000000000 1.0902728719841548e-09 -5.0003112761487500e-11 5.8427135734007152e-06 -1.2034446725703758 -7.5724076499812409e-06 -1.9599862063577772e-05 5.7166153897747635e-06 0.0000000000000000 -50.412828244765279 -66.590128188430739 142.20347059834828 136.07757377940416 0.0000000000000000 0.0000000000000000 0.0000000000000000 0.0000000000000000 3.2285738455682829 3.4465986725607820 1.2176036568446815 1.1318610551134449 5318.2888023708401 5318.2243706770541 1.1035766458780383 
-97.415685945091681 -160.30481528119304 62.307456784142801 -97.415685945091667 -160.30481528119302 62.307456784142801 -381.21515136776901 -0.00015010967918251741 -8.2872015473166031e-05 -0.00022541228835865068 -460.55544236307497 1.8802716050814187e-09 2.6393931484847144e-10 1.2114822101949585e-05 -0.065199704630652944 -9.1798955548075000e-09 -4.2599817676873195e-08 -4.8067928042815505e-08 -0.075721359501687804 -94.559718839999974 -158.71675115199997 77.626866652000004 109.98746742214213 0.0000000000000000 0.0000000000000000 0.0000000000000000 0.0000000000000000 3.3569483062804868 3.7412429316503051 1.3848853639620287 1.1769849062063586 2669.0545687036147 2666.5077963513531 1.1768126365376352 
-92.405531175895277 -160.04933630679119 67.709882987470948 -92.405531175895263 -160.04933630679122 67.709882987470934 -227.46258134611381 -0.00036572600914551158 0.00052637196672802367 -0.00012836704631716722 -107.44075587516750 1.7929863149745984e-09 2.6308000222741157e-10 1.1647498517675102e-05 -0.056980285572322077 -4.7006627807025181e-08 -5.4432936346131359e-08 -3.3736558944544635e-08 -0.00025489285751931223 -89.682139475999989 -158.46640519600001 82.438353807199988 112.88451412247700 0.0000000000000000 0.0000000000000000 0.0000000000000000 0.0000000000000000 3.3573164831414606 3.7420297188427374 1.3853084753443061 1.1769849062063595 2189.4688841139223 2172.5948297834757 1.1769916825213780 
-105.78735939224104 -156.45474820806356 72.392745483665280 -105.78735939224102 -156.45474820806348 72.392745483665280 -384.78984573367507 2.5567900540275513e-05 7.1145769267588958e-05 -4.1917153638429038e-05 0.0000000000000000 2.0261082811501296e-09 2.5108337631252198e-10 1.1242419031276539e-05 -0.096699147128395196 -5.2201678239165539e-08 3.4776706820563029e-08 2.6047730228299918e-07 0.0000000000000000 -102.70986659571734 -154.94403864466588 86.608986019839278 111.02505284862640 0.0000000000000000 0.0000000000000000 0.0000000000000000 0.0000000000000000 3.3561067873704071 3.7393514256044393 1.3838276750297238 1.1760147564000019 2612.3423934741163 2611.3371034152374 1.1763558938941328 
-103.42196599615257 -168.93538052400029 69.092882344172494 -103.42196599615259 -168.93538052400035 69.092882344172494 -241.56020018267179 -0.00033901885166103869 0.00027912457399201733 -0.00035650044969082016 0.0000000000000000 1.9849012433681423e-09 2.9276780999509816e-10 1.1527865567018125e-05 -0.059855929418068353 -1.3060101242491060e-08 1.6114376593775068e-08 -6.4655898656268720e-08 0.0000000000000000 -100.40706467681501 -167.17391327890167 83.670075146830683 105.53983917324770 0.0000000000000000 0.0000000000000000 0.0000000000000000 0.0000000000000000 3.3585475989073070 3.7450117657269115 1.3870784483681478 1.1770261094777701 2248.1946744603902 2256.2857078708566 1.1777431518440085 
-118.02538971296769 -100.18602413692027 83.579696953920049 -118.02538971296774 -100.18602413692027 83.579696953920035 -215.06876795299070 -1.1996587665808718e-05 -5.1507670869086303e-05 2.7778324097461488e-05 -170.67267112499275 2.2393088494609970e-09 6.3180793929973346e-11 1.0274719340230833e-05 -0.14576926248842906 -2.1846437935446692e-07 -3.3277685747978966e-07 -9.5841346043691645e-07 -0.081964348063757270 -114.62406224400000 -99.805851428000011 96.572263865600007 85.211636250682801 0.0000000000000000 0.0000000000000000 0.0000000000000000 0.0000000000000000 3.3566162410998097 3.7389927094442634 1.3828305417153499 1.1832944301495418 2210.5535300190827 2210.5393259936859 1.1759285116965239 
-114.39276548273223 -91.299264167502045 87.676866433172265 -114.39276548273226 -91.299264167502074 87.676866433172250 -222.63292401742592 4.2731074403175506e-06 -2.8177652580561849e-05 0.00014813723298941244 -217.31489985266219 2.1760234725221039e-09 3.3516522890408851e-11 9.9203037855488657e-06 -0.27643526544381708 4.1986228839178539e-07 1.0131545734141919e-06 2.6636443674178189e-08 -0.27774791905926316 -111.08756211600000 -91.097641973600034 100.22126851279998 99.535403830130534 0.0000000000000000 0.0000000000000000 0.0000000000000000 0.0000000000000000 3.3435889943254717 3.7118906722703877 1.3688895503775691 1.1796931948668985 2179.3086077408525 2179.3023387698950 1.1701210258829473 
-116.25893270269412 -97.991893687473635 96.845287956185899 -116.25893270269415 -97.991893687473663 96.845287956185913 -231.61335823805032 3.8810070278804941e-05 0.00020136682970157234 -0.00014074051821151825 -306.83036421820185 2.2085347994860168e-09 5.5859761260990133e-11 9.1272120386065581e-06 -0.13180380771076233 -1.8586552574906609e-08 -4.5495864301655712e-08 4.2641770295325930e-07 0.022923058670525017 -112.90434805199999 -97.655804887999992 108.38681131359999 128.09762094244454 0.0000000000000000 0.0000000000000000 0.0000000000000000 0.0000000000000000 3.3438418768400480 3.7109671350196276 1.3675911763561346 1.1818166538361969 2333.2247066501400 2333.2246171315342 1.1697230215495045 
-110.35297130197401 -104.30411361985689 88.046157464594245 -110.35297130197397 -104.30411361985685 88.046157464594231 -265.74759219311403 4.1493911792012183e-05 -0.00018791491815200152 0.00025013212356878381 0.0000000000000000 2.1056535404184729e-09 7.6942230364807074e-11 9.8883591661547143e-06 -0.17951581493089697 3.1840454063536449e-07 -9.6227918240496358e-08 1.1908539414588956e-07 0.0000000000000000 -107.15466629968294 -103.84120130723400 100.55016500991876 102.24201981555134 0.0000000000000000 0.0000000000000000 0.0000000000000000 0.0000000000000000 3.3824648013965057 3.8004627972473775 1.4187971207232699 1.1909251404052619 2447.5283217809188 2447.5366554188508 1.1910568705894489 
-28.284476676168048 -115.69408266608322 91.370466859425946 -28.284476676168058 -115.69408266608330 91.370466859425946 9.5964401489753914 0.00038313209631258817 -0.00025560314380284119 -0.00014834578406962027 0.0000000000000000 -0.00043183819114276338 0.00083786491469140998 0.00013056530934904643 -0.20743153671056552 -1.4031573517523218e-07 3.5821247644573004e-06 -3.2912575240395469e-06 0.0000000000000000 -26.889884864405381 -115.37486796036181 103.37575244326078 96.382960025775517 0.0000000000000000 0.0000000000000000 0.0000000000000000 0.0000000000000000 3.4648877194846928 3.9805105800251530 1.5156753629820015 1.2192660205580299 2242.3251340880020 2242.3244765482577 1.2310605554060146 
-112.83224404758195 -104.08018659188230 146.03667811702653 -112.83224404758197 -104.08018659188225 146.03667811702650 -38.206363363495782 -6.3528502022928017e-06 -5.4012723563157731e-05 3.9788289775728782e-05 -29.343784313067957 2.1488416601656013e-09 7.6194384135419555e-11 4.8720319547612681e-06 0.096962623967285014 7.9779351847434645e-08 -3.8708776468903339e-08 5.8963799874978808e-07 0.24440104426077236 -109.56833416800004 -103.62177336400003 152.19744990400002 70.302883591683823 0.0000000000000000 0.0000000000000000 0.0000000000000000 0.0000000000000000 3.3394895900234256 3.7031507899227027 1.3641698187686824 1.1785456256403479 1859.6750380605301 1859.6748098747482 1.1680521284125818 