# For a description of the Tecplot format see the Tecplot User's guide.
#
Variables=x,y,z,s_u,s_v,s_w,s_p,mono_f_vel_u,mono_f_vel_v,mono_f_vel_w,const,u_nu,v_nu,w_nu,p_nu,x_nu,y_nu,z_nu,const,u_ref,v_ref,w_ref,vol_ref,x_ref,y_ref,z_ref,const,I1,I2,I3,J,p1,p2,p3
Zone f=fepoint, n=356, e=1130, et=brick, c=black
-67.7197 -97.8336 79.6313 -67.719696554435401 -97.833585351448150 79.631292416465584 -395.13514809409952 -9.0716115146542288e-05 6.9676990952749344e-05 0.00079793209800306151 3.4342731310984118e-18 3.8333105578658433e-09 1.5575718492755186e-10 2.9485373371329615e-05 0.0016118004746871295 3.6738508859555682e-10 -6.0938764413165522e-10 -1.3463638855390826e-09 -2.0633470175468567e-19 -65.754724465942431 -97.517594547729473 92.373562431030237 2074.8615187338191 0.0000000000000000 0.0000000000000000 0.0000000000000000 0.0000000000000000 3.3366439333018447 3.6978937513229124 1.3617611885030450 1.1668554589031928 2316.0417760592613 2192.2040751549071 1.1669439344444188 
-77.969517913323543 -131.51858875455005 64.579441504856618 -77.969517913323529 -131.51858875455008 64.579441504856618 -208.88906189788054 -0.00033751515617829782 -5.6249631614966346e-05 5.7436486059927662e-05 38.718083577043565 4.3355279366608102e-09 4.7240611422694201e-10 3.3101582879169200e-05 0.0013926602990015635 1.9386440494326810e-09 5.7889603944782269e-10 -5.5126500684943614e-10 0.00060420260015575373 -75.747104543999981 -130.56019973999997 78.884476808000016 2128.8259272129790 0.0000000000000000 0.0000000000000000 0.0000000000000000 0.0000000000000000 3.3364109627868426 3.6975203026090919 1.3616224123702594 1.1668554589031941 1983.4486267113427 2008.4676719925490 1.1668823764864438 
-65.327154156724234 -122.58259101770095 56.050023906438916 -65.327154156724234 -122.58259101770093 56.050023906438916 -60.687872610458967 0.00021031748594023799 5.6524641915767262e-05 -4.6423196283909413e-05 174.62972201681276 3.7160743371345011e-09 3.8841729832483912e-10 3.5150776774628412e-05 0.00075261100577270722 -1.2023919091137573e-09 2.5361264839927946e-10 -2.1149743280940627e-10 -0.00060118038898307209 -63.422274742800013 -121.79461816400000 71.240629883439979 1237.7701333319521 0.0000000000000000 0.0000000000000000 0.0000000000000000 0.0000000000000000 3.3371392706367193 3.6986681821079221 1.3620248633166077 1.1668554589031932 1625.2855953826386 1640.7357338229381 1.1670597446110966 
-57.869896121764548 -133.06747461444425 62.076513186161520 -57.869896121764548 -133.06747461444428 62.076513186161499 -150.39001098469774 0.00033163267107360646 -0.00011026687863005298 -9.5324339958629197e-05 -179.75350901972868 3.3506832863849922e-09 4.8697135213160436e-10 3.3702911792943269e-05 0.00098035332555567855 -2.1199291161058429e-09 3.1177156651069478e-10 1.2480368358836978e-09 0.0021197533472493949 -56.152318124399997 -132.07954718800002 76.641416164000006 2090.5778096190215 0.0000000000000000 0.0000000000000000 0.0000000000000000 0.0000000000000000 3.3347902705289338 3.6942084264588519 1.3599337000596241 1.1668554589031936 1897.2754224254534 1971.5148950956159 1.1661584091272590 
-126.33505996960039 -110.95360267976805 76.098345566797178 -126.33505996960039 -110.95360267976807 76.098345566797192 -474.75603236890959 -1.6991296483234861e-05 -1.9343892319424762e-05 0.00010183084696688534 -324.48595425165513 6.7053380625736753e-09 2.7909186073316050e-10 3.0334164392797909e-05 0.0031795651135870231 1.2128772412269759e-10 1.2841206277007704e-10 6.8046301298077130e-10 0.0032660647525198068 -122.89786571200003 -110.38740333199999 89.207425400000020 2092.2379289329847 0.0000000000000000 0.0000000000000000 0.0000000000000000 0.0000000000000000 3.3369061537218014 3.6983392109185820 1.3619368940202192 1.1668554589031923 2473.2581755357273 2461.6928331655445 1.1670217259291706 
-126.20371078474862 -129.42253068738569 80.868081098672789 -126.20371078474861 -129.42253068738569 80.868081098672775 -550.27993259380696 2.0994520332820797e-06 -0.00024255189421632211 -0.00010446769536431448 -807.74946027212184 6.6989067626366250e-09 4.5271120185930148e-10 2.9188234691446262e-05 0.0031106410571093181 4.0164637145550870e-11 1.1574700059621637e-09 5.2657828363638321e-10 0.0042613226908513680 -122.76981557999994 -128.50411506799998 93.481940963999989 2295.0048277193882 0.0000000000000000 0.0000000000000000 0.0000000000000000 0.0000000000000000 3.3369597533642281 3.6983299942068215 1.3618669441865376 1.1668554589031928 2968.9544493016142 2915.7396357741768 1.1669911629900585 
-89.854879131645603 -120.29756629248088 97.081192011220281 -89.854879131645660 -120.29756629248092 97.081192011220239 -277.44594121548556 7.1816472352877019e-05 0.00038514417165311243 -0.00034636078496631443 -1.1585505886006110e-18 4.9178843219976898e-09 3.6692870963861424e-10 2.5293032280160332e-05 0.0016146941704844170 -1.9156765850921517e-10 -2.2604706185065759e-09 1.3164644115628567e-09 5.6723843401125450e-20 -87.333945182495114 -119.55317056945796 108.01171823852533 1853.2119812635015 0.0000000000000000 0.0000000000000000 0.0000000000000000 0.0000000000000000 3.3360353945810846 3.6967580312343395 1.3612473051601670 1.1668554589031932 2198.8419080457393 2418.4296696913093 1.1667261612838802 
-125.30821673698310 -119.68194674579235 95.994282329464241 -125.30821673698311 -119.68194674579237 95.994282329464241 -251.66444682146778 -5.9567607461035203e-05 1.0217651935738942e-06 -0.00065207875071559185 -260.55163935029731 6.6550280841681797e-09 3.6114222723426792e-10 2.5554162505159187e-05 0.0017451506385620125 -1.6517115984484949e-11 -3.6838499412615936e-10 1.1250110195414913e-09 0.0012510654092465264 -121.89681335200000 -118.94929134799999 107.03765745040002 1571.7251237143605 0.0000000000000000 0.0000000000000000 0.0000000000000000 0.0000000000000000 3.3366519386209919 3.6977725571777147 1.3616157625608403 1.1668554589031923 2150.4863977315940 1995.0998007471114 1.1668835036213172 
-45.584513977225242 -165.22552817454658 114.53108593476119 -45.584513977225242 -165.22552817454655 114.53108593476119 -59.989686437505966 7.6122758191499317e-05 2.0502105898912362e-05 -6.3080065654003798e-05 0.0000000000000000 2.7487223608346767e-09 7.8928819036150344e-10 2.1100692578102098e-05 -0.0017714954959832474 9.3623945319387286e-09 6.0781002208721710e-09 -6.5690391085438410e-09 0.0000000000000000 -44.175503749389662 -163.62432261291502 123.64986896362305 1288.7765825848380 0.0000000000000000 0.0000000000000000 0.0000000000000000 0.0000000000000000 3.3433204129896108 3.7134697598219137 1.3707547063949237 1.1697240458157065 1884.3007196864751 2138.1142826793434 1.1707911542379874 
-16.147888342059808 -145.08181840510133 128.38231526413588 -16.147888342059812 -145.08181840510133 128.38231526413591 -94.077296558209412 1.1027475623094880e-05 -9.9196980192997681e-05 -6.5579178338543996e-05 100.72915555343069 1.3063859438666725e-09 5.9992988354906629e-10 1.7772932579873668e-05 -0.00045599685679429563 4.2691553469044019e-10 -4.5206275228630488e-09 -9.3854000914812783e-09 0.0093017033883476923 -15.478227839600008 -143.86476845600004 136.06298808800005 1207.7015194609139 0.0000000000000000 0.0000000000000000 0.0000000000000000 0.0000000000000000 3.3362498589171974 3.6968982258672223 1.3611449661501129 1.1675362095448747 1976.3932879875576 1948.8299821211369 1.1666754362290721 
-45.584513977225242 -165.22552817454658 131.98097985830208 -45.584513977225242 -165.22552817454655 131.98097985830202 -113.84962818152177 4.9814957164313738e-05 -4.4238443730449620e-05 1.5860501526964802e-05 0.0000000000000000 2.7487223608346767e-09 7.8928819036150344e-10 1.6908352851174868e-05 0.00082203435845670575 5.2182461209216944e-10 -2.3673630641355779e-09 1.1697196044471368e-09 0.0000000000000000 -44.175503749389669 -163.62432261291511 139.28801968872074 2260.0113226803110 0.0000000000000000 0.0000000000000000 0.0000000000000000 0.0000000000000000 3.3357357390796412 3.6958461321109755 1.3606085233232152 1.1679719813347740 1996.5771395521572 1977.8024725408993 1.1664536854893652 
-6.3042956664976044 -163.01783245289255 122.09158517072771 -6.3042956664976053 -163.01783245289249 122.09158517072773 -224.43677308121266 8.3596487843222935e-05 2.0765717290404148e-05 0.00013255971070201582 -417.78458847629213 8.2406881318775049e-10 7.6851902619523571e-10 1.9284281460585362e-05 0.00089449161971735130 -8.7655532045180797e-10 2.2114900079076996e-09 -1.8229019457240083e-09 -0.0024878997345683549 -5.8818733370400009 -161.45872929999999 130.42539591680000 1840.5999298976626 0.0000000000000000 0.0000000000000000 0.0000000000000000 0.0000000000000000 3.3357036792128416 3.6956194327573537 1.3604079050990985 1.1668554589031934 2209.2559889701593 2171.4987738605678 1.1663662280590319 
-10.303537950002950 -107.61143120178309 180.74500438560176 -10.303537950002950 -107.61143120178306 180.74500438560176 -160.66089336891247 3.9622886495787301e-05 3.9883266735789859e-05 -9.1008475214593364e-05 -161.02918637016236 1.0200245648128716e-09 2.4767210504705872e-10 5.1927884072711095e-06 0.0013482889841526353 -5.3919639109942577e-12 -1.6491079309192040e-11 -1.0484590280688448e-11 0.00091370172452093744 -9.7806680107999995 -107.10896956400003 182.98909712000000 1021.2952016557671 0.0000000000000000 0.0000000000000000 0.0000000000000000 0.0000000000000000 3.3366754480230472 3.6978308451965987 1.3616578650461957 1.1668554589031925 2031.7129408893084 2026.6905097325032 1.1669010205235952 
-18.289210078221352 -109.16940789058435 192.35526460642083 -18.289210078221348 -109.16940789058435 192.35526460642083 -177.04650783498755 -0.00011498312945583880 9.3825221129696020e-05 8.2505795917761491e-05 -193.38868545954873 1.4113066826304532e-09 2.6232926941816004e-10 2.4034216110635498e-06 0.0014692932958883923 4.0561898407899314e-10 -2.0842338989479374e-10 -5.1282669253337527e-10 0.0014885188284026144 -17.565766725200003 -108.63723447200002 193.39391677600000 1230.2822850381203 0.0000000000000000 0.0000000000000000 0.0000000000000000 0.0000000000000000 3.3366789431783035 3.6978233907457332 1.3616462080664626 1.1668554589031936 2090.2376126741942 2085.8885633421683 1.1668956142061444 
-45.584513977225242 -120.29756629248088 166.88076770538393 -45.584513977225342 -120.29756629248084 166.88076770538410 -199.34954064286913 -1.7791204847258354e-05 3.7512367055354714e-05 0.00010789571049304138 0.0000000000000000 2.7487223608346763e-09 3.6692870963861424e-10 8.5236734150839766e-06 0.0017804611839217709 4.0669213532469870e-10 -6.5587795273768284e-10 9.0270634194309483e-10 0.0000000000000000 -44.175503749389591 -119.55317056945772 170.56432113891603 1872.3464537223574 0.0000000000000000 0.0000000000000000 0.0000000000000000 0.0000000000000000 3.3361570264537250 3.6968025257808619 1.3611510736367325 1.1668554589031943 2102.7796040944327 2118.6553953005341 1.1666860055661963 
-9.8431463276358961 -125.23567766452948 187.30123970950802 -9.8431463276358944 -125.23567766452948 187.30123970950805 -190.01784996893974 5.6173042015450559e-05 -0.00030802035650458133 -0.00013940904080956382 -200.26467270569734 9.9746666482047885e-10 4.1335557199317913e-10 3.6176518669606135e-06 0.0013944704029430776 2.5684528645153802e-10 1.2436813346769655e-09 -2.1890758441463488e-12 0.0011406400977900346 -9.3318398883999993 -124.39710846400000 188.86462832000004 1016.3527334425750 0.0000000000000000 0.0000000000000000 0.0000000000000000 0.0000000000000000 3.3366952311816855 3.6978485482678840 1.3616546419260480 1.1668554589031941 2176.0173002334536 2173.1691259146251 1.1668988948947032 
-45.584513977225242 -165.22552817454658 97.081192011220281 -45.584513977225242 -165.22552817454655 97.081192011220253 -147.93170738776831 -0.00010905908708433748 -0.00031541747613080776 -4.6210807371758973e-05 1.6853692350198374e-17 2.7487223608346763e-09 7.8928819036150334e-10 2.5293032280160336e-05 0.00093361143079267821 1.2701834888083072e-09 1.7456147572537259e-09 1.7413445315560413e-10 -1.0575727706024585e-18 -44.175503749389662 -163.62432261291499 108.01171823852535 1450.3671205666894 0.0000000000000000 0.0000000000000000 0.0000000000000000 0.0000000000000000 3.3381515371318073 3.7008948342916694 1.3632505535045378 1.1682219260973190 1773.7088150384520 1940.0071809678795 1.1675785289020022 
-63.000086003305327 -162.50415277317475 72.522432100369770 -63.000086003305327 -162.50415277317472 72.522432100369770 -548.71271472161743 -0.00014288780206724188 -0.00059967276782279524 -0.00013499016606764209 -43.176259429007551 3.6020511018364232e-09 7.6369266466258533e-10 3.1193278150709596e-05 0.0033815076130668080 3.6736907382139905e-10 4.1940148715426816e-09 1.1977214047270858e-09 0.0022771403951363806 -61.153654769600031 -160.95484587600001 86.002782780800032 1645.6757988676138 0.0000000000000000 0.0000000000000000 0.0000000000000000 0.0000000000000000 3.3248380636633144 3.6730042530766642 1.3486434185861957 1.1644018317852365 2736.1655619159919 2720.1401701097516 1.1613141594092122 
-45.643182287451772 -169.68791716141877 69.480175375862842 -45.643182287451772 -169.68791716141874 69.480175375862828 -934.96548099505060 0.00030374768604665210 -0.00098729789383057861 -0.00017686725407275178 -673.63186795896036 2.7516011691375297e-09 8.3121864946633650e-10 3.1924180802889168e-05 0.0044485310785780966 -1.0015792627090217e-09 5.0987259586943070e-09 1.3803874240005839e-09 0.0050770262769853792 -44.232698507600013 -168.00161050399998 83.276389748800028 1737.4139093181343 0.0000000000000000 0.0000000000000000 0.0000000000000000 0.0000000000000000 3.3378552014257661 3.7003139320757659 1.3629638194429579 1.1668554589031932 3420.5232280416972 3394.0693099694031 1.1674619958477177 
-45.584513977225242 -187.68950911557940 97.081192011220281 -45.584513977225242 -187.68950911557934 97.081192011220196 -770.69211688211396 2.4343642357809441e-05 -0.00033345312148533838 -0.00083244056796871345 -9.2461744273951951e-19 2.7487223608346767e-09 1.0004468364854802e-09 2.5293032280160332e-05 0.0040182300389628132 -1.8540432595573785e-10 1.8956777356921737e-09 2.3419859173894607e-09 6.4322173393951217e-20 -44.175503749389676 -185.65989863464350 108.01171823852533 1616.4576808433910 0.0000000000000000 0.0000000000000000 0.0000000000000000 0.0000000000000000 3.3340165681338441 3.6921770124812574 1.3586529510927290 1.1663307012003519 3200.9440822116003 3195.4813674895668 1.1656116618429500 
-89.854879131645603 -142.76154723351374 131.98097985830208 -89.854879131645660 -142.76154723351374 131.98097985830202 -185.32869517063813 -1.0093981591075125e-05 -1.4574252330550334e-05 1.9153244494650665e-05 0.0000000000000000 4.9178843219976898e-09 5.7810201070651601e-10 1.6908352851174868e-05 0.00046982558787018222 4.2335703029288721e-10 -4.6181017092588881e-10 1.8185627095658760e-09 0.0000000000000000 -87.333945182495100 -141.58874659118649 139.28801968872074 1877.7986991733408 0.0000000000000000 0.0000000000000000 0.0000000000000000 0.0000000000000000 3.3415473084822440 3.7085387428676744 1.3675164361158985 1.1687499947286895 2100.8892331780648 2077.0622517098086 1.1694139068968450 
-67.719696554435430 -165.22552817454658 131.98097985830208 -67.719696554435387 -165.22552817454655 131.98097985830199 -152.19057588463966 -5.1640877749158865e-05 4.1428383340298175e-05 7.0434365325315460e-05 1.3235367256514304e-18 3.8333105578658433e-09 7.8928819036150365e-10 1.6908352851174868e-05 -0.0016095026359933642 -1.2725298155844596e-09 -6.7235564262842033e-10 -8.5992491756358333e-09 -8.7359365786512523e-20 -65.754724465942374 -163.62432261291517 139.28801968872077 2018.1238718776010 0.0000000000000000 0.0000000000000000 0.0000000000000000 0.0000000000000000 3.3361917903318834 3.6969577311667079 1.3612721041995552 1.1689449341400071 2047.9600693700736 2033.4033978596403 1.1667336059834645 
-89.854879131645603 -165.22552817454658 114.53108593476119 -89.854879131645660 -165.22552817454655 114.53108593476112 -243.77094024535191 -0.00013629612882625332 -5.5974002333024490e-05 2.6161063747118911e-05 0.0000000000000000 4.9178843219976889e-09 7.8928819036150354e-10 2.1100692578102095e-05 0.0017808149175644399 3.4804638491109456e-09 3.6913273088436686e-09 7.9520613050554735e-09 0.0000000000000000 -87.333945182495114 -163.62432261291505 123.64986896362312 1549.0027140339625 0.0000000000000000 0.0000000000000000 0.0000000000000000 0.0000000000000000 3.3385116915742921 3.7015056907252553 1.3634975897956487 1.1676751954785609 2164.3062803460493 2277.6199017353629 1.1676863161414599 
-89.854879131645603 -142.76154723351374 114.53108593476119 -89.854879131645660 -142.76154723351374 114.53108593476111 -160.15155809444664 -0.00010834612149375258 -5.6233699956558584e-05 0.00014642027990337681 0.0000000000000000 4.9178843219976898e-09 5.7810201070651601e-10 2.1100692578102102e-05 -0.0020666567269719475 3.4366101749187405e-09 -4.3216495390590133e-09 -3.3967533060172301e-10 0.0000000000000000 -87.333945182495086 -141.58874659118649 123.64986896362313 1389.1126189879024 0.0000000000000000 0.0000000000000000 0.0000000000000000 0.0000000000000000 3.3380076970075829 3.7015990761767879 1.3641106500962359 1.1686697409622211 1976.7316814785431 2288.5101955086120 1.1679653190595287 
-46.632978072310088 -110.89886632045386 31.062137919195735 -46.632978072310081 -110.89886632045386 31.062137919195724 -868.54511639355394 0.00024770976620926220 7.5492152147780650e-05 -0.00031173419308613278 -821.30744600602418 2.8000952667639467e-09 2.7858426676630188e-10 4.1154120246744696e-05 0.0053647635544357636 -9.2147897713126320e-10 9.1275074124173646e-11 1.5808965139812260e-09 0.0058442333484212830 -45.197633928000002 -110.33371083599998 48.847122559999995 1069.0094105005942 0.0000000000000000 0.0000000000000000 0.0000000000000000 0.0000000000000000 3.3366039126411375 3.6976751671641783 1.3615734514085651 1.1668554589031928 3382.3969975664754 3382.9493419244077 1.1668648095141025 
-58.866235792788480 -99.172787929793387 28.137387961129090 -58.866235792788515 -99.172787929793373 28.137387961129090 -818.82607575171346 4.3725134778179677e-05 8.6868990143760028e-05 -0.00020732767314824224 -643.34892735239873 3.3995006809561797e-09 1.6835577376639319e-10 4.1856791881400568e-05 0.0056038410891241213 -2.9846017481720075e-11 -3.0550600917895559e-10 1.0683620202873947e-09 0.0057286756340827185 -57.123633070400032 -98.831257531200038 46.226036100800002 1475.5774262919704 0.0000000000000000 0.0000000000000000 0.0000000000000000 0.0000000000000000 3.3365853877498077 3.6976371557270076 1.3615540339596730 1.1668554589031932 3155.0079260857074 3155.6284813355178 1.1668564833081030 
-61.959947555279484 -106.05986593968471 40.450689203149608 -61.959947555279513 -106.05986593968470 40.450689203149622 -558.25381064988949 -5.6328318536880263e-05 0.00032820059802331046 -0.00030300919918029793 -150.54267731076897 3.5510849816233754e-09 2.3309665309056982e-10 3.8898519349572780e-05 0.0037167056152714495 2.3939657406624245e-10 -2.3155298815308099e-09 2.8907288650632216e-09 0.0022105881719212033 -60.139641125599979 -105.58699381199996 57.260903223199996 1724.6135661994952 0.0000000000000000 0.0000000000000000 0.0000000000000000 0.0000000000000000 3.3365370278347850 3.6975412380996748 1.3615068879477017 1.1668554589031932 2795.0570649040810 2791.2023532760504 1.1668361996104528 
-20.176876077003300 -88.249267053636828 40.939626770797297 -20.176876077003296 -88.249267053636828 40.939626770797297 -692.16403530733703 1.0858464605183048e-05 -0.00017158367024462602 -0.00042473056675501950 -676.29355780391427 1.5037986411670090e-09 6.5665251014479509e-11 3.8781052023040268e-05 0.0044865943821336754 -1.5748146647799197e-10 5.3139460784883216e-10 1.5848983559786061e-09 0.0047127911133558378 -19.406020858399991 -88.116056368799974 57.699076624800000 1439.6451283969650 0.0000000000000000 0.0000000000000000 0.0000000000000000 0.0000000000000000 3.3365365283943667 3.6975330145707823 1.3614986898868566 1.1668554589031932 3003.1528658933303 3003.2327248084262 1.1668327674555725 
-60.561724638916871 -180.48045354696470 64.435167160863756 -60.561724638916878 -180.48045354696475 64.435167160863770 -1606.3807238616409 -1.8186241118931579e-05 -9.5620359926576793e-05 -0.00023318768293796287 -2116.9604048712140 3.4825788919334855e-09 9.3269170164944626e-10 3.3136244809384152e-05 0.0071046187120433982 2.3106466693514174e-10 2.4421888370554677e-10 1.5049913466385347e-09 0.010121576814501518 -58.776536899199989 -178.58832514800000 78.755181813599989 1584.4809985467919 0.0000000000000000 0.0000000000000000 0.0000000000000000 0.0000000000000000 3.3387225217178216 3.7021662742799752 1.3639535018960358 1.1668554589031939 4910.8322653031209 4920.9832612485334 1.1678871761696317 
-76.652716404799776 -186.95848253321194 57.149293462453912 -76.652716404799776 -186.95848253321194 57.149293462453905 -1396.7096386430064 0.00075726017102160936 -0.00068792694678219285 -2.0000595802063469e-05 -1276.6574781337929 4.2710071035401143e-09 9.9358388183645729e-10 3.4886677092060843e-05 0.0068975517987629647 -2.9363927998659071e-09 2.2058345146381209e-09 3.6408229818550339e-11 0.0065813249365733332 -74.463376691600018 -184.94281327599995 72.225767276240006 1182.3928641350060 0.0000000000000000 0.0000000000000000 0.0000000000000000 0.0000000000000000 3.3375231288413327 3.6995812193313991 1.3625609751088310 1.1668554589031939 4120.8054587316565 4119.9796474521418 1.1672882754195604 
-71.804337943766186 -214.12216638636562 73.180211311041489 -71.804337943766186 -214.12216638636571 73.180211311041489 -1631.2694980354231 4.3262911862358474e-06 5.8703287172811481e-05 -0.00027244710297870102 -1729.9212022277936 4.0334375839279346e-09 1.2489240752699973e-09 3.1035246596644583e-05 0.0072282301698602582 -2.4490743788163714e-10 -1.1237728034717529e-10 8.1987117706397760e-10 0.0073491332900590452 -69.736773305200003 -211.58846536000007 86.592267764799999 1391.6778601551057 0.0000000000000000 0.0000000000000000 0.0000000000000000 0.0000000000000000 3.3357713222487360 3.6959586158016560 1.3606895294248422 1.1668554589031936 4889.5695604187913 4891.8786110748497 1.1664860059659772 
-89.321378286061801 -209.72373628231412 77.326569284262433 -89.321378286061787 -209.72373628231415 77.326569284262419 -1234.8475065600367 0.00071385510558963979 -0.00038824192796570558 -7.8281750005857704e-05 -1305.4340046667623 4.8917421224814453e-09 1.2075869193495239e-09 3.0039083448230031e-05 0.0061208821347360854 -2.7135150482155692e-09 1.5150887680222191e-09 2.3475350984368356e-10 0.0068782269953149662 -86.813844096400004 -207.27391660800001 90.308128229600001 1955.0875990986240 0.0000000000000000 0.0000000000000000 0.0000000000000000 0.0000000000000000 3.3381530015131982 3.7009655458528594 1.3633207696342031 1.1668554589031939 3987.7947246587187 3994.2947899998676 1.1676160083172049 
-76.560639966172516 -215.13842536524092 88.874493235890654 -76.560639966172516 -215.13842536524095 88.874493235890654 -1380.2499353952678 -0.00042992785097320112 0.00014700136288509462 0.00054137777233399136 -1724.1138011365481 4.2664882737852849e-09 1.2584844277796490e-09 2.7264692931794343e-05 0.0060049158023045592 1.0003040143154513e-09 -4.7503362016594531e-10 -1.0354193760988992e-10 0.0067386365168487766 -74.373612905599998 -212.58534351999998 100.65708370800000 988.41240310934302 0.0000000000000000 0.0000000000000000 0.0000000000000000 0.0000000000000000 3.3364704254736224 3.6974415328692123 1.3614760420339929 1.1668554589031932 4925.3408538196154 4927.8535439680663 1.1668249632670158 
-67.719696554435430 -187.68950911557940 97.081192011220281 -67.719696554435387 -187.68950911557934 97.081192011220196 -746.63533692217175 3.8388299712595107e-05 -0.00044244488781831350 -0.00038818812619917186 2.8557391093861748e-18 3.8333105578658441e-09 1.0004468364854802e-09 2.5293032294371187e-05 0.0043379498505167714 -2.1904124117869768e-10 1.4774112072591912e-09 5.7968556866330385e-10 -2.9024172692215448e-19 -65.754724465942374 -185.65989863464350 108.01171823852535 1808.0980320372519 0.0000000000000000 0.0000000000000000 0.0000000000000000 0.0000000000000000 3.3355735768969068 3.6953156732473733 1.3602298953594085 1.1665310802752362 3042.8102930149043 3014.3698026814272 1.1662838086111413 
-85.882518959872698 -210.83157340081129 98.211746810127636 -85.882518959872712 -210.83157340081129 98.211746810127650 -888.51732038928378 0.00096407046138754387 -0.00063985716216557759 -0.0012168503685289873 -900.39458788964851 4.7232484590153936e-09 1.2179905972686811e-09 2.5021416327319915e-05 0.0044766732961056413 -4.2161546772483121e-09 2.3293195305996503e-09 2.5363246874155786e-09 0.0042012101928655711 -83.461357431600007 -208.36062644399999 109.02489266960001 1287.0831768928649 0.0000000000000000 0.0000000000000000 0.0000000000000000 0.0000000000000000 3.3375696587015464 3.6997808311620726 1.3627203168276159 1.1668554589031932 3533.7198920891201 3572.5795194776006 1.1673556643146445 
-42.900435924053966 -130.99466993069484 49.928475904555739 -42.900435924053959 -130.99466993069478 49.928475904555739 -481.26469529469193 0.00015975653606741726 -6.7725203558527259e-05 -0.00013403922281380367 -559.11144305160656 2.6172057854267909e-09 4.6749537574442002e-10 3.6621479630127851e-05 0.0030590428429993705 -9.0037109331730896e-10 5.3229570488716203e-10 9.1043607809877212e-10 0.0039591894459810309 -41.558840772800004 -130.04627243999997 65.754654395919971 2180.9238908936368 0.0000000000000000 0.0000000000000000 0.0000000000000000 0.0000000000000000 3.3368993169822190 3.6982810346170236 1.3618835067441388 1.1668554589031932 2696.1178639608115 2696.8521124488916 1.1669976384765821 
-23.646088097093184 -135.47903229115209 38.938807957384746 -23.646088097093184 -135.47903229115209 38.938807957384746 -778.06652747323130 -4.6625238692141874e-06 4.1938132158322681e-05 -1.4117202836687769e-05 -845.83697930569713 1.6737828900659222e-09 5.0964343856207951e-10 3.9261749051888735e-05 0.0048138695198021563 -1.5639418663055439e-10 -2.4710720450182530e-10 2.3552135064427676e-10 0.0045988103235560960 -22.788097858800000 -134.44511465599999 55.905993737599999 935.86986824075086 0.0000000000000000 0.0000000000000000 0.0000000000000000 0.0000000000000000 3.3363706743434380 3.6971803358731887 1.3613112503047495 1.1668554589031921 3184.5205401834969 3184.0860942882505 1.1667526967734327 
-11.580717830763099 -104.03672588964868 45.860058337931420 -11.580717830763096 -104.03672588964872 45.860058337931406 -716.70480914777090 3.1600434101363690e-05 -0.00017936025807527322 -0.00024468033141246154 -651.62727952160958 1.0826027851962294e-09 2.1407875472334586e-10 3.7598917575820678e-05 0.0044472893590135993 -1.4420938506832094e-10 6.6540170658362337e-10 1.1162897110768752e-09 0.0039454449643177760 -11.025769398400001 -103.60243655599999 62.108642139439993 1284.9349949311236 0.0000000000000000 0.0000000000000000 0.0000000000000000 0.0000000000000000 3.3364760809901886 3.6974102854671340 1.3614365556903651 1.1668554589031930 3143.8782567832527 3141.8307908153288 1.1668061313956100 
-30.012138970088969 -141.92108073351446 54.745163596068437 -30.012138970088976 -141.92108073351446 54.745163596068437 -561.36253513501504 5.7966675677326535e-05 7.5810063969436093e-05 -0.00023745634380178260 -500.01068257983945 1.9857061550609956e-09 5.7019411414671595e-10 3.5464269664942094e-05 0.0034405109066445532 -3.0757751079608644e-10 7.3329056388511694e-11 1.0865997268053681e-09 0.0049214156515633304 -28.994254794799993 -140.76430841599998 70.071247290159988 2176.9829965296321 0.0000000000000000 0.0000000000000000 0.0000000000000000 0.0000000000000000 3.3371887810783147 3.6989373702991566 1.3622534060599230 1.1668554589031932 2809.2497780192966 2816.0936412850056 1.1671552990402072 
-106.34141330284751 -196.24672596697627 81.491257956246130 -106.34141330284751 -196.24672596697630 81.491257956246145 -674.48182973847531 2.3522315557580357e-05 -0.00011746101362819352 -0.00027368464095066169 -933.29820073819315 5.7256963614804590e-09 1.0808864914224614e-09 2.9038516348833809e-05 0.0044371106258827659 4.1962563830671931e-11 2.1046331408295376e-10 2.0262242501892136e-09 0.0043573186385407730 -103.40639267600000 -194.05392295999994 94.040416199999996 2662.2783756828549 0.0000000000000000 0.0000000000000000 0.0000000000000000 0.0000000000000000 3.3363852624599035 3.6972509595062060 1.3613693120087087 1.1668554589031934 2999.0706854783416 3007.0544383900565 1.1667778792354349 
-84.905113184267464 -163.87686793814342 63.371436562993431 -84.905113184267506 -163.87686793814336 63.371436562993438 -801.59521167648722 -8.9570726602100276e-05 4.6308384761175528e-05 -9.2420597586799231e-05 -1148.1931953933383 4.6753507731978061e-09 7.7659523256556905e-10 3.3391806251614760e-05 0.0050833042775814182 1.0664918993978271e-09 1.9878166942981521e-10 1.3094839687875158e-09 0.0066591880782373705 -82.508500824799995 -162.30138233600007 77.801893530400037 2229.3857910936085 0.0000000000000000 0.0000000000000000 0.0000000000000000 0.0000000000000000 3.3381573377533447 3.7009457304544360 1.3632945425087828 1.1668554589031934 3186.0393772065577 3184.8684708267106 1.1676035914734693 
-28.983134238249782 -125.91356152773915 118.89355941564642 -28.983134238249793 -125.91356152773915 118.89355941564644 -48.401514572295625 1.4888266204417403e-05 -2.7996762342194946e-05 5.7593258897947022e-05 -3.7180935032959037e-19 1.9352884850221130e-09 4.1972647579768823e-10 2.0052607652587543e-05 0.00027619310722912265 3.3973189512759345e-09 2.1416228515754436e-09 -5.2356134258378891e-11 1.6599139145363327e-20 -27.991095225219734 -125.06206457489009 127.55940664489751 1124.7619503421174 0.0000000000000000 0.0000000000000000 0.0000000000000000 0.0000000000000000 3.3333676213540864 3.6901540353023572 1.3572529587245417 1.1670003911795441 1671.6656663052584 1677.4985209024746 1.1650209958949092 