# For a description of the Tecplot format see the Tecplot User's guide.
#
Variables=x,y,z,s_u,s_v,s_w,s_p,mono_f_vel_u,mono_f_vel_v,mono_f_vel_w,const,u_nu,v_nu,w_nu,p_nu,x_nu,y_nu,z_nu,const,u_ref,v_ref,w_ref,vol_ref,x_ref,y_ref,z_ref,const,I1,I2,I3,J,p1,p2,p3
Zone f=fepoint, n=1339, e=6475, et=brick, c=black
-58.7182 -70.4674 176.276 -58.718207360019690 -70.467418791621554 176.27607959581653 -27.492091638581254 1.4057217800715816e-09 -1.0338135156672690e-07 2.6067182315139191e-07 -27.586379985219143 8.3074597548304929e-12 -4.2776893138807287e-13 9.1328333784446169e-10 8.3562074966316263e-06 6.0960235934244930e-14 -9.5049795736643162e-14 1.6297743152837342e-13 8.3932508268287157e-06 -58.668039002000000 -70.473359259200009 176.35421013599998 215.13583165143561 0.0000000000000000 0.0000000000000000 0.0000000000000000 0.0000000000000000 3.0087104744138982 3.0174387784030547 1.0087283146318560 1.0042843635774197 81.533947519974859 81.533947519935836 1.0043547043990919 
-65.017856537504414 -76.412017682860139 183.96942414812432 -65.017856537504400 -76.412017682860125 183.96942414812432 -28.341209833250463 -3.4370197543727097e-07 -8.0714231263163049e-07 8.7675387230633145e-07 -28.317857550003467 9.0689062162696565e-12 -1.9026447084513620e-13 6.4390215381848737e-10 8.2200387722237866e-06 9.0487713595536091e-14 -1.4268167817505984e-13 1.6628481279713343e-13 8.2553344597951828e-06 -64.963123215600007 -76.414687385200040 184.02450960799996 253.42820447565578 0.0000000000000000 0.0000000000000000 0.0000000000000000 0.0000000000000000 3.0088977765156368 3.0178144258088428 1.0089166610860454 1.0042843635774181 83.732365045924794 83.732365045907116 1.0044484948235852 
-69.721734538483645 -71.578817269838027 177.16119306687330 -69.721734538483631 -71.578817269838041 177.16119306687327 -27.683657517408282 -3.4728213637383110e-07 -1.6628586034817150e-07 1.3851538538631088e-07 -27.997603273337916 9.6359595649908575e-12 -3.8124364776237485e-13 8.8228913064369873e-10 8.4186961690463517e-06 3.6295194280069560e-14 -7.5477188208775736e-14 1.4059573529386166e-13 8.4381917255070944e-06 -69.663592608799988 -71.584146237200002 177.23667228800005 218.29881668600640 0.0000000000000000 0.0000000000000000 0.0000000000000000 0.0000000000000000 3.0090101250530883 3.0180394419833285 1.0090293289917336 1.0042843635774201 83.009644256817410 83.009644256807050 1.0045046077289790 
-57.214083695363264 -87.730332047234370 171.57863721436235 -57.214083695363293 -87.730332047234356 171.57863721436229 -26.613733580227485 -5.1548268435041642e-07 6.6316294657605949e-07 1.9619141337402066e-06 0.0000000000000000 8.1307746993553032e-12 2.6412899645222865e-13 1.0777472247980313e-09 8.3680502653258594e-06 5.8145021718300873e-14 -4.5223077979518195e-14 2.2101362396601424e-13 0.0000000000000000 -57.165005282198301 -87.726774323660578 171.67083873969227 259.76550921814646 0.0000000000000000 0.0000000000000000 0.0000000000000000 0.0000000000000000 3.0078113714476014 3.0156356069563786 1.0078242403015247 1.0039874103779327 76.602767903144965 76.602767902988646 1.0039044434127435 
-88.970434997479515 -83.379086012028878 116.85680182536373 -88.970434997479515 -83.379086012028878 116.85680182536365 -24.808502922928476 -3.1069678341971703e-07 1.2009934011100644e-06 -5.2749850299346737e-07 0.0000000000000000 1.1935037159960249e-11 8.6604334814666117e-14 2.9938188594869075e-09 1.0268090647968341e-05 -2.1471827346979037e-13 1.1162863880682989e-13 2.4179384994032781e-13 0.0000000000000000 -88.898344731952406 -83.377922378373768 117.11292023788836 283.91631954144174 0.0000000000000000 0.0000000000000000 0.0000000000000000 0.0000000000000000 3.0078335527348319 3.0156774242082216 1.0078438737779261 1.0040017542878936 73.469942584042215 73.469942583816703 1.0039142481462378 
-97.674090050927276 -66.893793928610592 107.93731505607676 -97.674090050927262 -66.893793928610606 107.93731505607676 -26.824461420699809 -5.2762224227298358e-08 3.2048494663999228e-07 -2.2518128071849176e-06 -27.161025407517169 1.2983240350872283e-11 -5.6876031662156369e-13 3.3061282600499453e-09 1.0441236533747652e-05 1.1034412262521164e-14 -4.5482530954591372e-14 4.0037503500037815e-13 1.0434391989849285e-05 -97.595692787999965 -66.901700632800015 108.22015140479995 322.25788568967050 0.0000000000000000 0.0000000000000000 0.0000000000000000 0.0000000000000000 3.0088871445270802 3.0177938278040837 1.0089066957177284 1.0042843635774190 81.000599799637726 81.000599799638138 1.0044435341174969 
-79.727925637310392 -67.523890149858829 108.33382619283766 -79.727925637310378 -67.523890149858815 108.33382619283765 -26.363695593710730 -6.9778978811320863e-07 5.5703567972870982e-07 -1.0657997923388813e-06 0.0000000000000000 1.0831648945830439e-11 -5.5157267642158548e-13 3.2922419235248412e-09 1.0421180235007609e-05 3.5895729211701896e-14 1.2954727245451727e-13 4.1264126313066970e-13 0.0000000000000000 -79.662532843379708 -67.531450170133141 108.61547480962874 295.38956150422752 0.0000000000000000 0.0000000000000000 0.0000000000000000 0.0000000000000000 3.0081645976630598 3.0163438142409458 1.0081792238490006 1.0040985953243629 77.516630041663063 77.516630041562095 1.0040812414298859 
-94.553924154796618 -81.839820266195659 108.34469214818320 -94.553924154796675 -81.839820266195616 108.34469214818320 -26.247648148490555 -9.5243697023988263e-07 7.0040196524017675e-07 -1.6546027387886768e-06 0.0000000000000000 1.2618060242497453e-11 2.7526592116799975e-14 3.2918617831612096e-09 1.0585559800388051e-05 8.5974353285724263e-14 2.2144779875809792e-13 6.1315073424665694e-13 0.0000000000000000 -94.477787882002133 -81.839503548705352 108.62630821647583 293.80807890400462 0.0000000000000000 0.0000000000000000 0.0000000000000000 0.0000000000000000 3.0081300576385406 3.0162736392339577 1.0081435877260327 1.0040848531047692 76.883195090672459 76.883195090541435 1.0040634890693350 
-47.342123128567991 -125.98612007130103 138.49136377643720 -47.342123128567962 -125.98612007130112 138.49136377643714 -17.431233418237859 -1.4414763652090404e-07 6.5043139430318635e-07 2.4453389141377683e-06 0.0000000000000000 2.2001067186433850e-09 -1.9356674540318762e-09 1.0143676877728901e-08 9.4405230178450988e-06 7.2645795633264003e-14 -1.0467325753147864e-13 7.9979000762906888e-13 0.0000000000000000 -47.292355390977058 -125.96433165720771 138.67232254046354 244.31333887135355 0.0000000000000000 0.0000000000000000 0.0000000000000000 0.0000000000000000 3.0096385679329423 3.0193031907529257 1.0096646441445711 1.0048599383506249 67.604387788354813 67.604387788281940 1.0048206985601309 
-34.232335668950441 -140.46683714376442 139.02824454097146 -34.232335668950441 -140.46683714376434 139.02824454097151 -17.599093252856093 1.0426322112220919e-06 -4.1716185592653897e-07 1.2826109822103876e-06 0.0000000000000000 9.7836182720529627e-10 -6.3924485235535032e-10 4.6907948064409208e-09 8.7298995491275886e-06 -5.4868486982631593e-15 -3.1370650403309980e-13 9.1520798580082920e-13 0.0000000000000000 -34.196989160350306 -140.43319657724166 139.21506628885933 210.16870282748488 0.0000000000000000 0.0000000000000000 0.0000000000000000 0.0000000000000000 3.0094086509182230 3.0188408485480660 1.0094322143916665 1.0047152752171937 67.129099327114304 67.129099326952129 1.0047050533790154 
-30.978296880922258 -127.66666701997937 142.54948581402439 -30.978296880922251 -127.66666701997931 142.54948581402448 -18.563445865213371 7.1622112121791096e-07 3.2288132846738594e-07 2.1761805168497867e-06 0.0000000000000000 4.9801907389679378e-12 1.8533924395214285e-12 2.0942023670755820e-09 8.7424052945413822e-06 1.7474169575849153e-13 -1.5345365245059439e-13 9.2768173248880508e-13 0.0000000000000000 -30.948229910445860 -127.64113600963313 142.72864290474456 229.21992526850030 0.0000000000000000 0.0000000000000000 0.0000000000000000 0.0000000000000000 3.0091117070480053 3.0182444541515707 1.0091327610314278 1.0045905719216464 67.711094483231861 67.711094483105228 1.0045559844579413 
-48.456216616425493 -130.93015304156654 146.70096518346827 -48.456216616425507 -130.93015304156646 146.70096518346827 -18.198189019393233 5.3803903804143433e-07 1.7195410000476273e-06 6.2792918933603942e-08 0.0000000000000000 2.2762969479065258e-09 -2.0504554102296212e-09 9.0524040612287580e-09 8.5831427090383078e-06 1.1817559116476684e-13 -4.5312144634357161e-13 9.7758042960951748e-13 0.0000000000000000 -48.406431667502837 -130.90513559487593 146.85896726379221 225.63426853136377 0.0000000000000000 0.0000000000000000 0.0000000000000000 0.0000000000000000 3.0096485217799702 3.0193225013890466 1.0096739993677775 1.0047959155727375 68.503188901395788 68.503188901274356 1.0048253527982174 
-53.056611286823106 -84.935954652402344 77.321231771576876 -53.056611286823077 -84.935954652402359 77.321231771576834 -26.105907398437783 -5.5626271090157596e-07 4.0386357827673527e-06 -8.9356670637014376e-06 0.0000000000000000 -1.7859259359978299e-10 1.8484737856537828e-09 5.9896154721000020e-09 1.2228752012588552e-05 3.0644401667005390e-13 5.4827594623004351e-12 9.9018025051978635e-13 0.0000000000000000 -53.009977022357148 -84.940192361847963 77.707205907375524 356.07450292316213 0.0000000000000000 0.0000000000000000 0.0000000000000000 0.0000000000000000 3.0082549197375106 3.0165243430292055 1.0082694288518690 1.0041625432548318 75.040194927229322 75.040194927013090 1.0041261035459810 
-40.349936234732944 -85.653444006351521 67.079030918167589 -40.349936234732930 -85.653444006351506 67.079030918167561 -31.357703427059665 -2.7260969976578610e-07 1.3334932819641377e-06 -4.5712114762882412e-06 0.0000000000000000 -1.7420820586464855e-11 2.9809099263564142e-10 4.7514905918476229e-09 1.1822050519612902e-05 5.1415140613181929e-13 6.1272077320811614e-13 -1.1349864845395783e-12 0.0000000000000000 -40.313282635619565 -85.652866469445740 67.489144002613742 334.72004880612383 0.0000000000000000 0.0000000000000000 0.0000000000000000 0.0000000000000000 3.0080104865697437 3.0160365849197599 1.0080261068759209 1.0041009998636543 85.732735595670732 85.732735595588110 1.0040050021510749 
-42.967675481248776 -94.072178890206459 82.907586383262796 -42.967675481248769 -94.072178890206473 82.907586383262753 -23.541799451887332 4.2680822511353668e-06 1.5595509807379933e-06 -4.5016168594761550e-06 0.0000000000000000 3.6929126157827628e-10 8.5370748383510637e-10 6.5543012982863758e-09 1.2108134980852687e-05 2.7093397649540358e-12 1.1280005859849878e-12 3.8795564240978332e-12 0.0000000000000000 -42.930125987095458 -94.071309017270835 83.274511392489799 283.94561953274422 0.0000000000000000 0.0000000000000000 0.0000000000000000 0.0000000000000000 3.0084943229523926 3.0170051486449596 1.0085108339506190 1.0042108242926515 72.515086268095715 72.515086267917184 1.0042463656761524 
-44.986553188961729 -98.979464211365638 67.611930506332811 -44.986553188961736 -98.979464211365652 67.611930506332797 -28.426649122696109 2.2288368439899986e-06 2.3363284454886662e-06 -6.5209444731079759e-06 0.0000000000000000 6.6614847318846593e-12 7.1329747663995146e-13 4.7180939155566640e-09 1.2037694264194420e-05 -1.0619607636646126e-12 2.9098020646854400e-14 -3.6059408357531952e-12 0.0000000000000000 -44.946335306532468 -98.969717126470769 68.015559797458934 339.42980011114588 0.0000000000000000 0.0000000000000000 0.0000000000000000 0.0000000000000000 3.0084202487207690 3.0168588050781300 1.0084385683155437 1.0041912829202284 81.326427890655864 81.326427890634662 1.0042103716209956 
-35.703424818001437 -100.84126981322416 74.974273149331694 -35.703424818001423 -100.84126981322419 74.974273149331736 -26.703690134212533 2.0989317997707019e-06 1.8104484774735129e-06 -3.8208244620500494e-06 0.0000000000000000 4.0872885556319317e-10 2.5794425858404646e-11 5.1475217888197058e-09 1.2133572278041892e-05 1.7684440230158072e-12 -6.3992966297947979e-13 5.7376661799145090e-13 0.0000000000000000 -35.672109309640206 -100.83293553867907 75.360366609178811 338.44965823895870 0.0000000000000000 0.0000000000000000 0.0000000000000000 0.0000000000000000 3.0078166434367137 3.0156481029875781 1.0078314676140498 1.0040690360319589 76.732624160642672 76.732624160565351 1.0039080807519118 
-49.018932956809962 -112.00899282639814 64.971604686627771 -49.018932956809969 -112.00899282639814 64.971604686627771 -26.423702963921329 3.8634063654034852e-06 2.5267207506514179e-06 -4.3229298851210338e-06 -24.823289941406760 7.1474917998082255e-12 1.2280107486439817e-12 4.8105383010366146e-09 1.1757934292139125e-05 -8.2095238269344038e-13 1.4453761269177090e-12 -9.3719698364817649e-13 1.1642978277659946e-05 -48.975793059600008 -111.99207679200002 65.383142959360015 326.57209562220959 0.0000000000000000 0.0000000000000000 0.0000000000000000 0.0000000000000000 3.0085908404020931 3.0171982837848224 1.0086074521865362 1.0042550159898893 78.481307094467169 78.481307094371587 1.0042944524355961 
-25.265464093809797 -110.49795599058100 67.064386927563589 -25.265464093809786 -110.49795599058099 67.064386927563632 -29.319377480307136 7.3884720633970940e-07 1.2832706307428920e-06 -4.2721209940681496e-06 0.0000000000000000 4.2938022928873387e-12 1.1713408021307714e-12 4.7372643585674731e-09 1.1715834972929391e-05 1.9239487043619691e-13 -1.8332068113971950e-13 -1.7973287056671253e-13 0.0000000000000000 -25.239536857883341 -110.48187134057846 67.469656361758609 349.35568362690350 0.0000000000000000 0.0000000000000000 0.0000000000000000 0.0000000000000000 3.0082695033089846 3.0165553152199336 1.0082858212193602 1.0041654316908479 83.226847690747334 83.226847690696516 1.0041343395501334 
-44.115439388209623 -111.28511931801791 76.074120863387606 -44.115439388209623 -111.28511931801783 76.074120863387620 -23.651827929088530 2.1555086206250894e-06 -1.6269645641076626e-06 -2.7207995766796385e-06 0.0000000000000000 6.5561037501660202e-12 1.1983539160986824e-12 4.4217948191871415e-09 1.1941142679169255e-05 8.3994524606354259e-14 -8.3136632664045659e-13 1.8035482346681045e-12 0.0000000000000000 -44.075852747763513 -111.26860156453857 76.452402029906395 268.59635586333832 0.0000000000000000 0.0000000000000000 0.0000000000000000 0.0000000000000000 3.0088461394095565 3.0177124113109852 1.0088662854201440 1.0041932219491596 74.675860084209560 74.675860084164029 1.0044233613589908 
-58.314259982487521 -106.62866181607333 105.04520724764801 -58.314259982487542 -106.62866181607339 105.04520724764794 -15.522249260871320 7.7452372598125320e-07 4.6060485622018956e-06 -7.6641409421981328e-07 0.0000000000000000 1.3802236759589893e-09 2.5771244480942967e-09 6.9925871437164508e-09 1.2584542707623955e-05 -5.7036525695960173e-13 4.7853616199001791e-13 -1.6719841799704234e-13 0.0000000000000000 -58.254647241440821 -106.62760994408018 105.33920711112118 241.62621693813244 0.0000000000000000 0.0000000000000000 0.0000000000000000 0.0000000000000000 3.0104106327830875 3.0208498184787751 1.0104392092748222 1.0051399060885513 66.427857532366275 66.427857532286865 1.0052060469486468 
-64.434233609100048 -90.082156707947036 96.362702777264701 -64.434233609100076 -90.082156707946993 96.362702777264744 -20.968803891096066 -1.9165956315629160e-06 1.6860961220480238e-06 2.4582794614436608e-06 0.0000000000000000 1.4378280538514073e-10 1.0914683760736981e-09 5.7718955866097824e-09 1.1135063593406033e-05 6.0288087306153609e-14 4.0762252719040670e-13 -2.0736673830265819e-12 0.0000000000000000 -64.370648572599308 -90.090304358695661 96.688480747766732 239.98138923263960 0.0000000000000000 0.0000000000000000 0.0000000000000000 0.0000000000000000 3.0091109281166628 3.0182404552263900 1.0091295347236509 1.0043695055609538 70.213102846740028 70.213102846439583 1.0045542958312235 
-75.988249201068157 -99.702643174196410 101.01651243639226 -75.988249201068172 -99.702643174196467 101.01651243639222 -19.730752713665286 -3.4889471877000739e-06 3.8998162024269889e-06 -8.5807917475260364e-07 0.0000000000000000 3.5653109149717737e-10 1.6901918988935211e-09 5.7692347687854717e-09 1.1850594828300105e-05 4.4365963125138924e-13 -2.1006816281039259e-13 1.3658058943783080e-13 0.0000000000000000 -75.913673002404863 -99.702254402691466 101.32606574872912 288.13617662859207 0.0000000000000000 0.0000000000000000 0.0000000000000000 0.0000000000000000 3.0094869218739437 3.0189956421759279 1.0095087336436095 1.0046059964036573 69.820509931273435 69.820509931102166 1.0047431640410986 
-55.220646064388063 -93.580026519295970 103.02370038428188 -55.220646064388092 -93.580026519295956 103.02370038428187 -19.823837896766420 -2.5491205904780109e-07 2.0831051567605256e-06 8.1141820865392495e-07 0.0000000000000000 7.9801637515251916e-10 1.5445572705912697e-09 6.9457827319664692e-09 1.1404335782592049e-05 4.6227819158680819e-13 4.2764146700426392e-13 2.5688766657318980e-13 0.0000000000000000 -55.164710769962618 -93.586508083202432 103.32606452766413 222.68531933077850 0.0000000000000000 0.0000000000000000 0.0000000000000000 0.0000000000000000 3.0092835990399815 3.0185855131676522 1.0093019227726676 1.0046119822698598 70.872196205383730 70.872196205149692 1.0046402143754773 
-45.803587758797228 -175.94790100998259 155.50881709769567 -45.803587758797228 -175.94790100998253 155.50881709769561 -19.004966235727640 -1.5546667152401038e-06 -2.1808647153615935e-06 4.0126913032569085e-06 0.0000000000000000 6.7627648273060892e-12 3.7834041455298006e-12 1.6404259062241522e-09 7.5950767034867401e-06 9.9556750350164538e-14 3.8181266682923197e-14 -2.4170536970527384e-13 0.0000000000000000 -45.762777822239421 -175.89580528354742 155.64915507299250 248.91339099022119 0.0000000000000000 0.0000000000000000 0.0000000000000000 0.0000000000000000 3.0092286032011750 3.0184766149346318 1.0092480230640815 1.0044930292456731 67.014576456659768 67.014576456533163 1.0046133599492135 
-51.480419034652073 -185.62022893361532 168.05094534651002 -51.480419034652073 -185.62022893361538 168.05094534650999 -20.233026480170111 5.4775045560300638e-08 -9.1026801258954798e-08 -3.7326713770966035e-09 -20.641560924346006 7.4384049267295360e-12 4.1756459401298684e-12 1.2012894012869424e-09 7.4083437904359328e-06 -6.7744882598171133e-15 1.4248154319118873e-13 1.3708507916232802e-13 7.4494796550778017e-06 -51.435495451599998 -185.56281141599996 168.15371392000000 294.81703600272857 0.0000000000000000 0.0000000000000000 0.0000000000000000 0.0000000000000000 3.0084871594778200 3.0169908745132474 1.0085037243617645 1.0042781328363490 67.811311231969995 67.811311231915582 1.0042428680358861 
-42.711953244157364 -171.23111856763222 166.16162765928519 -42.711953244157357 -171.23111856763222 166.16162765928524 -19.990619084735613 2.0843867259955910e-07 -2.2893561252384380e-07 1.2465655695545264e-06 0.0000000000000000 1.6343623966431282e-10 -9.4083435660817168e-10 1.8861376288208191e-09 7.4444381305158722e-06 -1.7237102611304256e-14 -1.8615857378328860e-13 2.0080640790530233e-13 0.0000000000000000 -42.672974891599750 -171.18173466392949 166.26923354793541 271.88244999766295 0.0000000000000000 0.0000000000000000 0.0000000000000000 0.0000000000000000 3.0085260300369088 3.0170691643117640 1.0085431443060278 1.0043019062944731 67.260121561725342 67.260121561680975 1.0042624895956147 
-59.433421550353160 -178.07064707515545 157.61659183490403 -59.433421550353160 -178.07064707515553 157.61659183490394 -20.635340499350498 -1.1263914343695588e-06 -3.3396053818815524e-07 3.3059780431254499e-08 0.0000000000000000 8.3928220276363613e-12 3.8585801220847316e-12 1.5666349328924409e-09 7.6835123575250038e-06 1.1474545635129738e-13 -4.8692700878288505e-14 2.8927427972181607e-13 0.0000000000000000 -59.382734921100123 -178.01738339707751 157.75061606229067 243.94852352315442 0.0000000000000000 0.0000000000000000 0.0000000000000000 0.0000000000000000 3.0084631050973196 3.0169422858798374 1.0084791893079734 1.0042939785400298 68.257841039201082 68.257841039103383 1.0042306532615024 
-30.691339985387867 -102.73252823662619 95.001077080389749 -30.691339985387874 -102.73252823662624 95.001077080389720 -17.996589907903680 1.3975549387925734e-06 2.5470723038397020e-06 -6.6839606394980765e-06 0.0000000000000000 -2.1001492318252519e-10 9.3951655066904375e-10 5.4129826193370951e-09 1.2122811088180572e-05 -1.0280151307522315e-12 3.4739636906611074e-12 -9.4175929796200147e-13 0.0000000000000000 -30.660097366607719 -102.72526557899965 95.328291536857705 204.58703120518373 0.0000000000000000 0.0000000000000000 0.0000000000000000 0.0000000000000000 3.0093340492927463 3.0186872332649046 1.0093531923029753 1.0046022100463630 66.538862668127024 66.538862667796138 1.0046656974642654 
-18.825482131268263 -110.92226924181679 93.026535706341960 -18.825482131268256 -110.92226924181674 93.026535706341917 -21.003311297124167 2.2435948419992323e-06 4.2755916552322992e-07 -5.5907496039743311e-06 0.0000000000000000 3.5226864827930804e-12 1.1857112514057633e-12 3.8282107484022276e-09 1.1802979057365421e-05 2.1947956197275570e-12 9.8108872418470691e-14 -8.6931151230188118e-13 0.0000000000000000 -18.804221549666405 -110.90595113131390 93.354036648627854 267.24800799435923 0.0000000000000000 0.0000000000000000 0.0000000000000000 0.0000000000000000 3.0085842196693924 3.0171846664471347 1.0086004552628927 1.0043268904539207 70.358796513007348 70.358796512913557 1.0042910494869159 
-33.846805837017008 -104.72082859673603 84.647572135574777 -33.846805837016994 -104.72082859673597 84.647572135574777 -22.341799117946152 1.9926826726147577e-06 7.0020714291732941e-08 -4.8383504520050699e-06 0.0000000000000000 -3.6886098579529084e-10 4.5282701292754743e-10 5.1861026088522070e-09 1.1715042126110424e-05 -6.1399809084652074e-13 1.6506484775990085e-13 -5.9458968551155365e-13 0.0000000000000000 -33.815892125380543 -104.71065599625929 85.007910193808286 270.69679205096202 0.0000000000000000 0.0000000000000000 0.0000000000000000 0.0000000000000000 3.0081360092928739 3.0162883404925092 1.0081523404450163 1.0041942931177015 70.354006715566115 70.354006715459477 1.0040678375890331 
-18.942529120552457 -100.39020442882861 95.076704249101994 -18.942529120552461 -100.39020442882861 95.076704249102008 -19.793138739215927 7.0039202398043171e-07 8.6959466306738080e-08 -1.6928379474967567e-06 0.0000000000000000 3.5370517278976443e-12 7.5681821920525739e-13 3.7564267252321315e-09 1.1337487063092686e-05 9.4908573598258756e-13 7.7250175735124224e-13 1.8251025509183432e-13 0.0000000000000000 -18.921183722278450 -100.37968114352928 95.398064000337470 185.31956687594098 0.0000000000000000 0.0000000000000000 0.0000000000000000 0.0000000000000000 3.0087179860603590 3.0174518850679628 1.0087339068549224 1.0043351863592589 68.304846880867245 68.304846880751342 1.0043575065570880 
-31.153447384740275 -117.99739626462035 173.12882171088674 -31.153447384740275 -117.99739626462039 173.12882171088674 -22.781662912611367 2.2498788216346987e-06 2.1529011614486696e-06 1.6264945451605098e-06 0.0000000000000000 8.8281051690416676e-10 -2.3892378596057160e-10 1.7170069459267121e-09 8.1111199386870177e-06 1.4639065458906444e-13 -2.0341451936348908e-14 -1.6559483453858094e-13 0.0000000000000000 -31.124431206993112 -117.97934695114738 173.21200361760444 258.17126679857051 0.0000000000000000 0.0000000000000000 0.0000000000000000 0.0000000000000000 3.0085596687072917 3.0171355108219395 1.0085758499856636 1.0043133219987437 72.376463458090200 72.376463457941767 1.0042787778119360 
-30.671940455326791 -133.16173701036791 164.69778653965167 -30.671940455326769 -133.16173701036780 164.69778653965173 -20.551223075554933 2.2284637288393377e-06 -1.7862710101383507e-08 4.8275485285560183e-07 0.0000000000000000 9.5796752014574144e-10 -3.8734029506031868e-10 2.0596584526153820e-09 7.7738471949049767e-06 3.1599140058365593e-14 -2.2671419607687517e-13 2.5440475499628437e-13 0.0000000000000000 -30.642131568542830 -133.13454878399213 164.80820313575899 262.24283076768535 0.0000000000000000 0.0000000000000000 0.0000000000000000 0.0000000000000000 3.0088094156122058 3.0176375119568495 1.0088281077502399 1.0044492867951382 69.535469946695727 69.535469946613986 1.0044043410980885 
-42.716965143398220 -120.12161494438990 163.59718199572202 -42.716965143398205 -120.12161494438989 163.59718199572205 -19.344954953442578 3.5857912980348292e-06 2.4088616532238768e-06 1.7827049860279652e-06 0.0000000000000000 1.6326764738966510e-09 -9.4169229340794292e-10 4.4431438888662904e-09 8.0465137689688210e-06 -7.4562707334098154e-14 -2.2049338429962343e-13 -1.1351104557069835e-12 0.0000000000000000 -42.676694985445003 -120.10595080876966 163.70375490782192 268.28772502602959 0.0000000000000000 0.0000000000000000 0.0000000000000000 0.0000000000000000 3.0098031538362076 3.0196308681626935 1.0098277318551647 1.0047296101663259 69.468828469577545 69.468828469420316 1.0049018549560602 
-23.772168465845425 -114.25211767704010 161.69095185405232 -23.772168465845425 -114.25211767704012 161.69095185405237 -22.378983154955193 1.1154266617008962e-06 8.1457380757824850e-07 1.6720988010620837e-06 0.0000000000000000 4.1138351405956008e-12 1.3224282779944474e-12 1.4239737167187627e-09 8.0848558317167125e-06 -4.0665305081538511e-14 -2.0025576699401931e-13 2.3814363239527988e-13 0.0000000000000000 -23.747323328369049 -114.23396745764113 161.81277151251504 321.01516800445251 0.0000000000000000 0.0000000000000000 0.0000000000000000 0.0000000000000000 3.0084308637282842 3.0168778860778263 1.0084470306522990 1.0042912220537112 71.649772192260841 71.649772192139807 1.0042146517165131 
-6.4757594944302594 -105.00061273234398 109.05200211928303 -6.4757594944302603 -105.00061273234400 109.05200211928307 -15.615938837941972 4.8487267043202821e-08 1.2385704466873637e-07 -3.0379452319933901e-06 -14.371870404406089 2.0391249452855753e-12 9.4026175734285289e-13 3.2670878225005144e-09 9.6634147280424632e-06 -8.1839436272985451e-14 3.3366748766444589e-14 1.4131547931109374e-12 9.2268173396719765e-06 -6.4634479885999987 -104.98755276399999 109.33149947120000 327.67017865987640 0.0000000000000000 0.0000000000000000 0.0000000000000000 0.0000000000000000 3.0085739790624904 3.0171653694052698 1.0085914005353145 1.0043368344662236 59.084926111248812 59.084926111144888 1.0042865263671668 
-11.823024770345260 -97.125607617962203 101.13446935610204 -11.823024770345258 -97.125607617962217 101.13446935610204 -18.772442805789844 -4.2617645399414115e-07 4.9329663179668302e-08 -3.4114523195811017e-06 -18.182344192511980 2.6815260081858305e-12 6.3420102502931286e-13 3.5443180612659830e-09 1.0670271324051325e-05 1.7130429412985139e-13 -1.4362452962693584e-13 8.0397198538183480e-13 1.0612526752990348e-05 -11.806838433999999 -97.116880539599975 101.43768333439998 212.90238721710071 0.0000000000000000 0.0000000000000000 0.0000000000000000 0.0000000000000000 3.0084887384756591 3.0169938678578547 1.0085051387461126 1.0042843635774181 64.936013808665038 64.936013808644518 1.0042435718634566 
-15.868722641336211 -110.37612040676255 102.79919932682593 -15.868722641336207 -110.37612040676258 102.79919932682589 -17.321788198031491 1.5703505195347101e-06 6.6757118668226633e-08 -6.3611285247153512e-06 0.0000000000000000 3.1673925635078426e-12 1.1579903702596539e-12 3.4860261344249462e-09 1.0431315893026134e-05 -4.1616113541514884e-13 1.5074050263966158e-13 1.8707471571078057e-12 0.0000000000000000 -15.849604639409371 -110.36010279166017 103.09742667861765 236.22178992679409 0.0000000000000000 0.0000000000000000 0.0000000000000000 0.0000000000000000 3.0085202593208531 3.0170577658578357 1.0085375164546875 1.0043453531834909 63.073706538632926 63.073706538526956 1.0042596920889968 
-23.774425427346440 -99.544270305726272 101.98116921165270 -23.774425427346433 -99.544270305726243 101.98116921165273 -17.621159771256053 1.7002000690490561e-06 3.0056198558612951e-06 -4.2116549835692448e-06 0.0000000000000000 4.1153061861032292e-12 7.2536421313884592e-13 3.5146722199286273e-09 1.0773942913388324e-05 1.0502622089819975e-12 -2.8390313627414436e-13 1.5599623110023920e-12 0.0000000000000000 -23.749578654390465 -99.534212460059550 102.28184693721489 211.57004919854941 0.0000000000000000 0.0000000000000000 0.0000000000000000 0.0000000000000000 3.0088624223590075 3.0177440514235929 1.0088816395376126 1.0044517056120086 64.468754875159902 64.468754874965327 1.0044309884841727 
-54.144440087052068 -108.37425965191066 113.57989257618398 -54.144440087052082 -108.37425965191065 113.57989257618401 -12.108235454624479 1.9522513640807050e-06 6.3822329927078060e-06 -4.3237009456368520e-06 0.0000000000000000 2.8810823228284806e-09 2.3287125040886991e-09 8.5169049156367830e-09 1.4337608385989849e-05 2.4345856836628024e-12 4.4243345874494695e-12 -5.8196900797349655e-12 0.0000000000000000 -54.087034329299712 -108.37170302860723 113.84396407125838 191.01171882188567 0.0000000000000000 0.0000000000000000 0.0000000000000000 0.0000000000000000 3.0114834765586860 3.0230014235771780 1.0115179781263408 1.0055538004916267 62.437573032310723 62.437573032224989 1.0057425053937303 
-41.737418560005622 -107.75247812824529 110.70210143962342 -41.737418560005615 -107.75247812824531 110.70210143962336 -13.936961808501538 -1.1541370923286106e-06 4.1321873623335147e-06 3.1655405045675192e-07 0.0000000000000000 2.4441674027613244e-09 5.6924527351375322e-10 7.5190205395987350e-09 1.0959630569617564e-05 1.9727855452244432e-12 -1.5769417023294659e-12 -1.4452401475527598e-12 0.0000000000000000 -41.690910404717421 -107.74885629568415 110.97670241767709 270.34727434602189 0.0000000000000000 0.0000000000000000 0.0000000000000000 0.0000000000000000 3.0104981018967343 3.0210220396789818 1.0105239548840255 1.0052095453134562 64.378253821612191 64.378253821411803 1.0052482105718950 