# For a description of the Tecplot format see the Tecplot User's guide.
#
Variables=x,y,z,s_u,s_v,s_w,s_p,mono_f_vel_u,mono_f_vel_v,mono_f_vel_w,const,u_nu,v_nu,w_nu,p_nu,x_nu,y_nu,z_nu,const,u_ref,v_ref,w_ref,vol_ref,x_ref,y_ref,z_ref,const,I1,I2,I3,J,p1,p2,p3
Zone f=fepoint, n=1339, e=6475, et=brick, c=black
-59.7619 -70.3443 174.566 -59.761923188732233 -70.344300326213116 174.56589256562140 -187.33417168135409 4.7876501854835497e-07 1.3634495194791624e-07 1.5003172582713197e-06 -189.99383500645010 8.6678832167397246e-09 -3.4008251770245574e-10 4.1082922344060071e-06 0.0016176337942491461 -2.5930734242929520e-12 4.2502961928363901e-12 -1.4706084654812004e-11 0.0016211906260257280 -58.668039002000000 -70.473359259200009 176.35421013599998 215.13583165143561 0.0000000000000000 0.0000000000000000 0.0000000000000000 0.0000000000000000 3.2003567934202435 3.4097521917359832 1.2095126268842102 1.0986521697106533 1063.7292081098753 1063.7292988510524 1.0997832372496206 
-66.156543085851524 -76.356687079529053 182.76366723398431 -66.156543085851553 -76.356687079529053 182.76366723398436 -197.60557110277327 -1.0401563032655779e-05 -1.0056820099082985e-05 1.0572337045006160e-05 -198.29731978399334 9.4566027508680151e-09 -1.5283196930226950e-10 2.8965263485503101e-06 0.0016437200774471427 3.4971817088839616e-11 1.8231843873203031e-11 -4.0285020681773064e-11 0.0016598152132900508 -64.963123215600007 -76.414687385200040 184.02450960799996 253.42820447565578 0.0000000000000000 0.0000000000000000 0.0000000000000000 0.0000000000000000 3.2031439536159407 3.4156936355620009 1.2126760069243701 1.0986521697106550 1090.6411761124796 1090.6411779224948 1.1012281868765348 
-70.931334667292148 -71.468372380583801 175.50904033995050 -70.931334667292148 -71.468372380583801 175.50904033995047 -190.72260212533936 -6.1778311077523472e-06 -1.4106162706941662e-06 -1.2010531697785630e-07 -196.53471166044253 1.0045527215618577e-08 -3.0506897008564233e-10 3.9688795059333870e-06 0.0016220652274903690 2.1170778191446619e-11 1.2038426660187263e-11 -9.6863943752059756e-12 0.0016319139016015745 -69.663592608799988 -71.584146237200002 177.23667228800005 218.29881668600640 0.0000000000000000 0.0000000000000000 0.0000000000000000 0.0000000000000000 3.2045651482635926 3.4186132384905723 1.2141757737430583 1.0986521697106533 1083.6527827984773 1083.6527131867385 1.1019134498484109 
-58.235124022182440 -87.804067230698635 169.56045261698060 -58.235124022182404 -87.804067230698678 169.56045261698065 -171.49320779450835 -7.5867919815310189e-06 1.3783709007773509e-05 2.9717922593982189e-05 0.0000000000000000 8.4795638566337317e-09 2.0367263431353422e-10 4.8481785821508083e-06 0.0015949591390455476 2.3460837022214401e-11 -4.8643316943014508e-11 -3.7418821088883927e-11 0.0000000000000000 -57.165005282198301 -87.726774323660578 171.67083873969227 259.76550921814646 0.0000000000000000 0.0000000000000000 0.0000000000000000 0.0000000000000000 3.1874817594988092 3.3822891833841315 1.1948799036431341 1.0945173101619474 991.86648862356014 991.86650319147066 1.0930985828671289 
-90.470220005337197 -83.403202765133798 111.25066642344632 -90.470220005337225 -83.403202765133770 111.25066642344626 -144.84126168281526 3.5218461661674206e-06 2.3075862382352603e-05 -1.1351714737709718e-05 0.0000000000000000 1.2455460135507577e-08 6.6611161031460142e-11 1.3467323855209656e-05 0.0015982583925755812 -1.1495945340678663e-11 -8.4344014007408197e-11 2.1382668122506066e-11 0.0000000000000000 -88.898344731952406 -83.377922378373768 117.11292023788836 283.91631954144174 0.0000000000000000 0.0000000000000000 0.0000000000000000 0.0000000000000000 3.1898854132341530 3.3866861561485755 1.1968650583997695 1.0952267579611497 945.84270551230406 945.93832567818652 1.0940105900599943 
-99.305087505794077 -66.729924456487964 101.74635497672642 -99.305087505794077 -66.729924456487979 101.74635497672644 -182.34803935856542 2.4515107313872743e-06 1.0873061124896354e-05 -5.1696364637670923e-05 -189.61359867126558 1.3545151805738342e-08 -4.5264736403538558e-10 1.4872217388273155e-05 0.0017027351074720724 -2.2084427198557975e-11 -2.2802135474559834e-11 1.0980556872139444e-10 0.0016996114503696189 -97.595692787999965 -66.901700632800015 108.22015140479995 322.25788568967050 0.0000000000000000 0.0000000000000000 0.0000000000000000 0.0000000000000000 3.2019878123113754 3.4134624778579581 1.2116026826274457 1.0986521697106537 1059.4969270754389 1060.2817411207509 1.1007373011535524 
-81.088374669396373 -67.367205834636252 102.16886418979519 -81.088374669396401 -67.367205834636252 102.16886418979520 -179.32214368596195 -1.0376296324411660e-05 1.2284408287330026e-05 -2.2210106056886125e-05 0.0000000000000000 1.1298292218464566e-08 -4.3280057315797654e-10 1.4809763575485137e-05 0.0016858047008565583 5.0327618067836691e-11 -2.9097919595448160e-11 8.0312345328603245e-11 0.0000000000000000 -79.662532843379708 -67.531450170133141 108.61547480962874 295.38956150422752 0.0000000000000000 0.0000000000000000 0.0000000000000000 0.0000000000000000 3.1927027566337736 3.3933797189367465 1.2007688557296528 1.0959878769368177 1022.5772261428912 1022.6967185248444 1.0957878931307168 
-96.137883371154246 -81.846384357466192 102.18044259407353 -96.137883371154217 -81.846384357466164 102.18044259407355 -170.22833416485904 -1.5787427457507179e-05 1.7650315687490372e-05 -3.8724837577530957e-05 0.0000000000000000 1.3154505623669268e-08 1.8125723144635231e-11 1.4808052091197510e-05 0.0016953556749278091 8.9171704504887848e-11 -2.7649227450209885e-11 1.1801790865539226e-10 0.0000000000000000 -94.477787882002133 -81.839503548705352 108.62630821647583 293.80807890400462 0.0000000000000000 0.0000000000000000 0.0000000000000000 0.0000000000000000 3.1932481502518750 3.3941917802087862 1.2010286969200126 1.0960292797038018 998.30418807683134 996.16397868634135 1.0959064804632914 
-48.297331313519884 -126.46936945094045 134.34890409393498 -48.297331313519869 -126.46936945094049 134.34890409393492 -62.377931123763652 5.8511009155004709e-06 5.7321646391958748e-06 1.5922595350885765e-05 0.0000000000000000 6.3778344347056230e-07 -2.1950789655086897e-07 9.9487673672488678e-06 0.0013112829798584522 -1.6538774847496997e-11 -2.0522305712040283e-11 -6.0552519121376024e-11 0.0000000000000000 -47.292355390977058 -125.96433165720771 138.67232254046354 244.31333887135355 0.0000000000000000 0.0000000000000000 0.0000000000000000 0.0000000000000000 3.2114802638226214 3.4341318468165136 1.2228237563910269 1.1062706907019653 886.72461082324924 886.59223389981810 1.1058130633089365 
-34.941841288203399 -141.15251813940449 134.87898155765882 -34.941841288203392 -141.15251813940449 134.87898155765882 -61.066981089836368 1.3586066049850920e-05 1.7617398390409955e-06 8.0887556409744356e-06 0.0000000000000000 2.4747476717870729e-07 6.5971153873341170e-08 1.0002783430807637e-05 0.0013102886897868316 -9.8382568266820739e-11 3.1675980321643178e-11 3.3302593381457550e-12 0.0000000000000000 -34.196989160350306 -140.43319657724166 139.21506628885933 210.16870282748488 0.0000000000000000 0.0000000000000000 0.0000000000000000 0.0000000000000000 3.2092084372451328 3.4291939432064416 1.2201426417123598 1.1046715488808962 877.28061118061771 878.76049770826160 1.1046027695870106 
-31.603818110765161 -128.19580698626220 138.62794460622510 -31.603818110765140 -128.19580698626217 138.62794460622507 -75.110495391612275 1.0316666971949324e-05 3.7399589007411726e-06 2.1735633821511271e-05 0.0000000000000000 5.1948468582363461e-09 1.4615895160829952e-09 9.4205119456347575e-06 0.0013324096990118754 -4.6390246010315550e-11 -1.1625708943385564e-11 -7.3700896787389618e-12 0.0000000000000000 -30.948229910445860 -127.64113600963313 142.72864290474456 229.21992526850030 0.0000000000000000 0.0000000000000000 0.0000000000000000 0.0000000000000000 3.2038813417734966 3.4176495530107438 1.2139039891640495 1.1025246500814538 883.84716284539081 884.52540499095551 1.1017717864993650 
-49.426375874441852 -131.46770341874134 143.08159890694660 -49.426375874441867 -131.46770341874128 143.08159890694654 -61.089960118872149 1.2681352564998183e-05 2.9653882559892910e-05 -1.3167062200049201e-05 0.0000000000000000 5.7487250531955842e-07 -2.3868605744465833e-07 8.7251803992040744e-06 0.0013085468478890390 -4.0155132741146876e-11 -1.5441999522434503e-10 4.6841628319060687e-11 0.0000000000000000 -48.406431667502837 -130.90513559487593 146.85896726379221 225.63426853136377 0.0000000000000000 0.0000000000000000 0.0000000000000000 0.0000000000000000 3.2144375163263987 3.4402469804125908 1.2259826644146059 1.1067519105622010 886.97904404358644 886.98740739723382 1.1072410448178085 
-54.009393049697934 -84.875763930585649 68.951994402535803 -54.009393049697941 -84.875763930585649 68.951994402535789 -164.74277902307341 -6.9878365739779188e-06 9.5997152149204256e-05 -0.00014361590867666195 0.0000000000000000 -7.6370502980725395e-08 3.6784364214663895e-08 2.0658601801500442e-05 0.0020919331923884557 9.0556309894522941e-11 9.2671014872852925e-10 3.4370533912024143e-10 0.0000000000000000 -53.009977022357148 -84.940192361847963 77.707205907375524 356.07450292316213 0.0000000000000000 0.0000000000000000 0.0000000000000000 0.0000000000000000 3.1997793845830906 3.4082321841515770 1.2085493381158789 1.0987093094872364 972.05564889067796 972.06780813452781 1.0993007631229839 
-41.103786993079538 -85.670787116792255 58.124347228752185 -41.103786993079538 -85.670787116792283 58.124347228752185 -267.92961461593910 6.6694075659970902e-06 2.5698874872570731e-05 -8.7192227820426425e-05 0.0000000000000000 -5.6184218941672050e-08 6.9721582177423227e-08 2.1288471809051185e-05 0.0021442875719483792 5.8387323319410770e-11 4.0496251131359612e-11 -1.2945359646876735e-10 0.0000000000000000 -40.313282635619565 -85.652866469445740 67.489144002613742 334.72004880612383 0.0000000000000000 0.0000000000000000 0.0000000000000000 0.0000000000000000 3.1886729633181967 3.3855702985793812 1.1969978196441853 1.0957511805783915 1166.1724844095579 1166.2380634605836 1.0940623819970521 
-43.726406842420275 -94.150061375122974 74.954808082686881 -43.726406842420275 -94.150061375123016 74.954808082686881 -133.21062277062484 9.4031764892442253e-05 1.4158001374706690e-05 -5.5667282988748456e-05 0.0000000000000000 -6.4442527474782066e-08 -2.4989881967559029e-07 1.9894209449931906e-05 0.0019138539451083380 3.6941054384477798e-10 1.1066275201922897e-10 1.0479158288615032e-09 0.0000000000000000 -42.930125987095458 -94.071309017270835 83.274511392489799 283.94561953274422 0.0000000000000000 0.0000000000000000 0.0000000000000000 0.0000000000000000 3.2031103599693562 3.4155590690692414 1.2125669004936614 1.0991364067269287 944.75464664533524 944.76544817081844 1.1011572797576721 
-45.823256683867029 -99.181476278364656 58.776952825782807 -45.823256683867015 -99.181476278364684 58.776952825782764 -203.56175463209155 8.8344499946595861e-05 4.3033196170607373e-05 -0.00013749590694289455 0.0000000000000000 6.9486801035356649e-09 5.5799298515069040e-10 2.1223801631720104e-05 0.0020677237756548971 -4.4995463325705363e-10 -2.1445582465829956e-10 -6.0622002433929404e-10 0.0000000000000000 -44.946335306532468 -98.969717126470769 68.015559797458934 339.42980011114588 0.0000000000000000 0.0000000000000000 0.0000000000000000 0.0000000000000000 3.1991081186322861 3.4079216843835711 1.2089529665447738 1.0984167776517684 1054.8235735882010 1054.5416475935565 1.0995102896915858 
-36.345273412306831 -101.04011784969758 66.554974485791419 -36.345273412306831 -101.04011784969757 66.554974485791433 -196.17051618541575 5.7437979864644589e-05 2.6422001251351001e-05 -5.9844996281433300e-05 0.0000000000000000 -1.3583248688870820e-07 -1.4067471662173156e-07 2.0343045960761538e-05 0.0020078802283608594 2.1034950471203376e-10 -2.6889061962306037e-10 2.5164764971507462e-10 0.0000000000000000 -35.672109309640206 -100.83293553867907 75.360366609178811 338.44965823895870 0.0000000000000000 0.0000000000000000 0.0000000000000000 0.0000000000000000 3.1850205465796737 3.3778382937124953 1.1929119079636363 1.0954610841713182 1028.9938035184593 1028.5285741737023 1.0922010367109605 
-49.916426822353849 -112.35958411713430 55.963508559269400 -49.916426822353849 -112.35958411713430 55.963508559269378 -175.40707064635873 0.00011073249881293359 1.8896839402929970e-05 -7.8015043714540320e-05 -131.61014489858911 7.4535343730364190e-09 9.6840424568256367e-10 2.1639674958606751e-05 0.0018929930834239203 -4.4591756768197618e-10 2.7339960039766303e-10 1.3684727382341313e-10 0.0018242683544670197 -48.975793059600008 -111.99207679200002 65.383142959360015 326.57209562220959 0.0000000000000000 0.0000000000000000 0.0000000000000000 0.0000000000000000 3.1979377033136904 3.4043571247773272 1.2065188426416551 1.0985904785909797 1011.7993644152502 1013.4834378361624 1.0984019754075656 
-25.804861187901931 -110.83131652134594 58.193508414923471 -25.804861187901913 -110.83131652134590 58.193508414923429 -254.86316362815688 2.0223198404515022e-05 1.3698003852427996e-05 -6.9930981476620791e-05 0.0000000000000000 4.4796006071212702e-09 9.2080609803701918e-10 2.1310044312272680e-05 0.0020031201761387609 -3.5673121308683542e-11 -1.4310280101229091e-10 7.4157231377388000e-11 0.0000000000000000 -25.239536857883341 -110.48187134057846 67.469656361758609 349.35568362690350 0.0000000000000000 0.0000000000000000 0.0000000000000000 0.0000000000000000 3.1925677214708195 3.3935655845051791 1.2011034516873809 1.0966182556784982 1159.4963635737579 1160.6000249462447 1.0959442159724242 
-44.939010357444019 -111.62745608419399 67.793984271114269 -44.939010357443998 -111.62745608419394 67.793984271114311 -142.80500324786016 5.6460310511841051e-05 -5.1931588136567938e-05 -3.4289180466215956e-05 0.0000000000000000 6.8396129038195150e-09 9.4560403951504668e-10 1.9890936099997703e-05 0.0018178043487444004 -2.0115831142388498e-10 -1.5459142379206945e-11 3.9689768234882179e-10 0.0000000000000000 -44.075852747763513 -111.26860156453857 76.452402029906395 268.59635586333832 0.0000000000000000 0.0000000000000000 0.0000000000000000 0.0000000000000000 3.2038510965319356 3.4178360898806797 1.2141304900639085 1.0987767381457603 986.76618376266288 987.77287283299040 1.1018819924923600 
-59.436770028741186 -106.79226347520236 98.626895813504078 -59.436770028741186 -106.79226347520230 98.626895813504106 -49.638438181600591 1.6770679635540602e-05 4.3091131758870522e-05 5.5298305364480650e-06 0.0000000000000000 6.9614728355241645e-07 -7.8769702492063905e-07 1.6008051826903802e-05 0.0013729643745964653 -1.0237377739165933e-10 -3.3641889832936810e-10 9.4606952151802204e-11 0.0000000000000000 -58.254647241440821 -106.62760994408018 105.33920711112118 241.62621693813244 0.0000000000000000 0.0000000000000000 0.0000000000000000 0.0000000000000000 3.2198875510290224 3.4517650963723598 1.2320712062281129 1.1090205306895200 880.34211565128521 880.36171365847508 1.1099846041863577 
-65.678955303097140 -90.018389156367903 89.299858945379953 -65.678955303097140 -90.018389156367903 89.299858945379981 -96.353579997440875 -2.5136990532817039e-05 4.4077918159976337e-06 4.6772176963882206e-05 0.0000000000000000 6.0948766005647811e-07 -8.8335261217890292e-07 1.7679183482764441e-05 0.0016010520286411617 1.8062080111368456e-10 -1.2905367964091683e-10 -2.4209352184793592e-10 0.0000000000000000 -64.370648572599308 -90.090304358695661 96.688480747766732 239.98138923263960 0.0000000000000000 0.0000000000000000 0.0000000000000000 0.0000000000000000 3.2105623887985790 3.4314081918724724 1.2209744999871588 1.1015304305566420 913.61574023982166 913.62409210694886 1.1049549643792036 
-77.431595106629089 -99.793598255075892 94.282544860294095 -77.431595106629132 -99.793598255075850 94.282544860294053 -84.919545165157047 -4.0371170635821638e-05 5.1085725409678428e-05 -1.2436438200483335e-05 0.0000000000000000 8.3970407137379684e-07 -5.8396808105876512e-07 1.6741628448322856e-05 0.0015645663533047417 3.1124994834171543e-10 -3.3822984508471763e-10 1.4089098220495561e-10 0.0000000000000000 -75.913673002404863 -99.702254402691466 101.32606574872912 288.13617662859207 0.0000000000000000 0.0000000000000000 0.0000000000000000 0.0000000000000000 3.2138750519720429 3.4387634423478741 1.2250503578677439 1.1042636887131181 910.40834811148648 910.36975324099672 1.1068327085037319 
-56.294600155845082 -93.576386191157582 96.442673739210917 -56.294600155845060 -93.576386191157610 96.442673739210917 -89.584500212421986 -3.9659115563523171e-07 2.7145737071956616e-05 2.1206346076539936e-05 0.0000000000000000 5.6989285976721277e-07 -8.5520878712263892e-07 1.6520227460913184e-05 0.0015301932762832881 6.1453634601215958e-11 -1.0509245905718426e-10 2.1962023944389203e-11 0.0000000000000000 -55.164710769962618 -93.586508083202432 103.32606452766413 222.68531933077850 0.0000000000000000 0.0000000000000000 0.0000000000000000 0.0000000000000000 3.2100299833907546 3.4298764045867745 1.2199703449427632 1.1039300135492298 931.20403225904488 931.21469058680282 1.1045234638669117 
-46.652608504850562 -177.02760488991535 152.43698136441049 -46.652608504850583 -177.02760488991535 152.43698136441057 -59.418565753934040 -2.5421662510589580e-05 -2.3364756073003832e-05 5.0678881983636270e-05 0.0000000000000000 7.0509715011102259e-09 2.9823663538763867e-09 7.3793092258966908e-06 0.0012986384198701146 7.5488206724362257e-11 1.3107794434129017e-10 -1.2365073110727441e-10 0.0000000000000000 -45.762777822239421 -175.89580528354742 155.64915507299250 248.91339099022119 0.0000000000000000 0.0000000000000000 0.0000000000000000 0.0000000000000000 3.2108553949891285 3.4314788364462467 1.2207501048096272 1.1030150025450227 852.77639149530557 853.01054020280560 1.1048681893165977 
-52.415021173624673 -186.81022897368439 165.80146030415162 -52.415021173624687 -186.81022897368439 165.80146030415159 -71.085746150467088 3.6182081906728616e-06 -5.0138971351363578e-06 -4.3124502998751409e-06 -78.258183248663485 7.7617115235018019e-09 3.2870364208292813e-09 5.4038194701178091e-06 0.0013092552906768416 -1.4051641978032379e-11 1.9139126508378294e-11 2.9295823941140281e-11 0.0013169000619023400 -51.435495451599998 -185.56281141599996 168.15371392000000 294.81703600272857 0.0000000000000000 0.0000000000000000 0.0000000000000000 0.0000000000000000 3.1969310674385798 3.4025656855556243 1.2057450269521339 1.0988680109725772 844.92817611172597 844.95005516960725 1.0980674822161962 
-43.518988794906299 -172.24677952703499 163.78945452801511 -43.518988794906285 -172.24677952703499 163.78945452801511 -67.944865423176324 5.0626093079214334e-06 -4.6095177577937770e-06 1.0650943967971381e-05 0.0000000000000000 2.8991259337831370e-08 -1.1730258800174665e-07 5.7198954163158869e-06 0.0013165371412561635 -3.2142089742717429e-11 -2.5635684368592435e-11 -8.8584314912737970e-12 0.0000000000000000 -42.672974891599750 -171.18173466392949 166.26923354793541 271.88244999766295 0.0000000000000000 0.0000000000000000 0.0000000000000000 0.0000000000000000 3.1994119762657500 3.4077901317460504 1.2084942645103249 1.0998895779688409 843.33343660749972 843.24094573263915 1.0993163317662320 
-60.487919631288847 -179.17455720013919 154.68295673049738 -60.487919631288840 -179.17455720013916 154.68295673049747 -78.957279462239882 -1.2385299891702087e-05 -5.1370720696980878e-06 -2.5501853734947803e-06 0.0000000000000000 8.7574228146980460e-09 3.0492248725977333e-09 7.0473171192020345e-06 0.0013436874987400151 6.0037305201994024e-11 1.8706844406303827e-11 6.7920073590580295e-12 0.0000000000000000 -59.382734921100123 -178.01738339707751 157.75061606229067 243.94852352315442 0.0000000000000000 0.0000000000000000 0.0000000000000000 0.0000000000000000 3.1988370974934819 3.4062944750162534 1.2075624581916282 1.0997101440617789 860.78194645606698 860.72257089141942 1.0988935698792419 
-31.309166024217927 -102.93889615691427 87.886915844101267 -31.309166024217919 -102.93889615691431 87.886915844101225 -81.275140691710405 2.3099799316717145e-05 4.3212978558209546e-05 -9.3256685006531576e-05 0.0000000000000000 -5.7984817882340474e-08 -1.2490316511905083e-07 1.7587977375495156e-05 0.0016467312192194224 -4.2407577661081512e-10 4.8804687661534634e-10 1.3084790810806267e-10 0.0000000000000000 -30.660097366607719 -102.72526557899965 95.328291536857705 204.58703120518373 0.0000000000000000 0.0000000000000000 0.0000000000000000 0.0000000000000000 3.2086986780446680 3.4265609313707999 1.2179680073503258 1.1024651960562479 887.70551793856657 887.70596939538109 1.1036097817773272 
-19.267792910839585 -111.26046833085599 85.857919406511670 -19.267792910839592 -111.26046833085594 85.857919406511712 -134.41919332052260 4.4440699157234706e-05 1.6304813510739800e-06 -8.4939684205549579e-05 0.0000000000000000 3.6733166230984438e-09 9.3416785418298787e-10 1.7220789443328499e-05 0.0017397801912032466 2.2643608533649635e-10 -1.8301691805726037e-11 -9.1015072613989697e-11 0.0000000000000000 -18.804221549666405 -110.90595113131390 93.354036648627854 267.24800799435923 0.0000000000000000 0.0000000000000000 0.0000000000000000 0.0000000000000000 3.1962691158043879 3.4005903274351961 1.2044144373961674 1.0984744646951983 965.11368155193384 965.14189753734888 1.0974640114233731 
-34.467881802092705 -104.97679291252085 76.820146041322602 -34.467881802092727 -104.97679291252085 76.820146041322616 -139.13052248556247 4.7319588108345530e-05 -1.0194782515093642e-05 -6.6918744007828936e-05 0.0000000000000000 -2.3979789712900641e-07 -1.6594599776967585e-08 1.9204328086213519e-05 0.0017404547517169426 -3.2707245097570202e-10 1.3734451824639042e-11 4.4399440771773098e-11 0.0000000000000000 -33.815892125380543 -104.71065599625929 85.007910193808286 270.69679205096202 0.0000000000000000 0.0000000000000000 0.0000000000000000 0.0000000000000000 3.1906245826965844 3.3896613262064461 1.1991439303648901 1.0971402116523221 943.76850878212008 943.63446272041745 1.0950391626055298 
-19.386604448670880 -100.60830354644922 88.042511508352632 -19.386604448670880 -100.60830354644919 88.042511508352632 -110.59069267196891 1.7463593817064682e-05 -6.5824360064305132e-06 -2.1465158248506461e-05 0.0000000000000000 3.6879685139101773e-09 6.0243721122787974e-10 1.6897870805721027e-05 0.0016128851617103323 1.0275701447764243e-10 1.7453094468329305e-10 7.5974174517206029e-11 0.0000000000000000 -18.921183722278450 -100.37968114352928 95.398064000337470 185.31956687594098 0.0000000000000000 0.0000000000000000 0.0000000000000000 0.0000000000000000 3.2002182285401961 3.4087614108769482 1.2086397282297445 1.0990475017458119 931.99169548436817 932.00429116027249 1.0993911616641676 
-31.768167768489757 -118.38477537799994 171.25746931526001 -31.768167768489768 -118.38477537799996 171.25746931526007 -107.01430610303001 4.2736941010190382e-05 4.4934532513178871e-05 1.1536162483258654e-05 0.0000000000000000 -6.5840791933442560e-08 -1.6091315404778683e-07 4.3362199165610017e-06 0.0015196549600584924 -1.1764513170268253e-10 -1.0527540624846701e-10 -9.6161026237660045e-11 0.0000000000000000 -31.124431206993112 -117.97934695114738 173.21200361760444 258.17126679857051 0.0000000000000000 0.0000000000000000 0.0000000000000000 0.0000000000000000 3.2007949891410683 3.4103302432070088 1.2096389752065344 1.1004653291276072 916.66263536916790 916.68835369261785 1.0998363665121966 
-31.295738170948773 -133.73537429828068 162.24480650603459 -31.295738170948770 -133.73537429828059 162.24480650603445 -80.993997493979435 3.0870490504079737e-05 2.2560801362559935e-06 -2.4023077608015257e-06 0.0000000000000000 4.7536254684670672e-08 -1.3389068427724628e-07 5.8243056738174224e-06 0.0013813688156006482 -1.1358497574897838e-10 -4.2768190232398726e-11 -1.4550918108768464e-11 0.0000000000000000 -30.642131568542830 -133.13454878399213 164.80820313575899 262.24283076768535 0.0000000000000000 0.0000000000000000 0.0000000000000000 0.0000000000000000 3.2046323819364670 3.4188359796219632 1.2143309806859102 1.1022309255533160 888.64882005577124 888.53123986442631 1.1019650906306075 
-43.540618116844925 -120.48960324767545 161.13342749460500 -43.540618116844925 -120.48960324767542 161.13342749460492 -61.330170935633937 5.7081798834100693e-05 2.7432825846223083e-05 7.2676777221792205e-06 0.0000000000000000 1.2403582789762921e-07 -4.4681837869767644e-07 5.6161831228200677e-06 0.0013931559594010131 -2.0831383468076792e-10 -1.5601195253509691e-10 -2.8408320998555091e-10 0.0000000000000000 -42.676694985445003 -120.10595080876966 163.70375490782192 268.28772502602959 0.0000000000000000 0.0000000000000000 0.0000000000000000 0.0000000000000000 3.2195858514000828 3.4507516126873687 1.2313399587023068 1.1073813188898940 884.94592335490131 884.96079147598982 1.1096558841091959 
-24.289053296727449 -114.62828792453679 159.02446062749175 -24.289053296727467 -114.62828792453682 159.02446062749183 -113.22753638006208 1.9595928199169006e-05 1.5493818570865231e-05 1.6751365275496973e-05 0.0000000000000000 4.2926391052855450e-09 1.0390635019064121e-09 6.4055714652511142e-06 0.0014528793971694514 -7.6745813597151817e-11 -5.9444961614447626e-11 -6.2975113968366554e-11 0.0000000000000000 -23.747323328369049 -114.23396745764113 161.81277151251504 321.01516800445251 0.0000000000000000 0.0000000000000000 0.0000000000000000 0.0000000000000000 3.1967900201151274 3.4020449818287273 1.2053548567442711 1.0990377015723389 923.89290987324875 923.80740872598108 1.0978915397735380 
-6.7318913276724066 -105.27128557746362 102.93412881264064 -6.7318913276724039 -105.27128557746363 102.93412881264065 -51.401398982453962 2.7605720603658731e-06 -3.0405542082226126e-06 -4.8175030205347547e-05 -29.864984010914313 2.1271313044302076e-09 7.4765349467043062e-10 1.4696644871747822e-05 0.0012617705557471765 -1.3368654213490056e-11 1.0706306990167618e-11 2.4508523861853478e-10 0.0011845261086486044 -6.4634479885999987 -104.98755276399999 109.33149947120000 327.67017865987640 0.0000000000000000 0.0000000000000000 0.0000000000000000 0.0000000000000000 3.1982436352089034 3.4053580631329199 1.2072269713010919 1.0992761422927295 794.54366755532476 794.54316911029332 1.0987399888814076 
-12.159769605521783 -97.306479658970559 94.497466567678700 -12.159769605521785 -97.306479658970574 94.497466567678686 -95.848415023136781 -1.8628255157388066e-06 -5.4747319541318144e-06 -5.5627333740570364e-05 -88.780068233933477 2.7966079729768722e-09 4.9960524606262879e-10 1.5943722297961926e-05 0.0014865514734627569 2.3958708498749569e-11 -2.8818214078273232e-11 1.7410002431413348e-10 0.0014714194887311251 -11.806838433999999 -97.116880539599975 101.43768333439998 212.90238721710071 0.0000000000000000 0.0000000000000000 0.0000000000000000 0.0000000000000000 3.1975036179359462 3.4036058751884033 1.2062093830904785 1.0986521697106550 887.48932295298414 887.48649311084023 1.0982759418878731 
-16.266458624973065 -110.70809161355406 96.271348016881575 -16.266458624973058 -110.70809161355405 96.271348016881575 -80.874924632469856 2.1487639359652277e-05 -5.3832594939063838e-06 -0.00010505255464578478 0.0000000000000000 3.3031282986595301e-09 9.1697094362075404e-10 1.5681513440668482e-05 0.0014162699595208514 -1.7246176941922770e-10 4.3903696836840543e-11 3.7813227034044257e-10 0.0000000000000000 -15.849604639409371 -110.36010279166017 103.09742667861765 236.22178992679409 0.0000000000000000 0.0000000000000000 0.0000000000000000 0.0000000000000000 3.1964494773241374 3.4016196804887739 1.2052803733601782 1.0990873300259649 863.87430640762864 863.87723949997928 1.0978538693756372 
-24.291344283179999 -99.752723008725383 95.399682058008921 -24.291344283180010 -99.752723008725354 95.399682058008921 -76.619054172797846 2.7357627668808190e-05 4.2764319046982314e-05 -6.5323282739568884e-05 0.0000000000000000 4.2929224897125806e-09 5.7578830592319719e-10 1.5810360006085489e-05 0.0014358509593540897 -9.1668864426675666e-11 -2.3710871878664687e-10 3.0000104807935659e-10 0.0000000000000000 -23.749578654390465 -99.534212460059550 102.28184693721489 211.57004919854941 0.0000000000000000 0.0000000000000000 0.0000000000000000 0.0000000000000000 3.2009682724535988 3.4112309186397116 1.2103813638406000 1.1005500391924381 865.05943362462483 865.06005471628680 1.1001723729363346 
-55.218861375990919 -108.57780979404680 107.74983670359492 -55.218861375990926 -108.57780979404679 107.74983670359489 -30.087185360141827 1.0873490111186969e-05 3.3277446236838706e-05 -2.4876209427793528e-05 0.0000000000000000 8.5361286022699279e-07 -7.0276928037142386e-07 1.4420430417543780e-05 0.0012772435156089537 -1.4737838256520669e-10 -1.7958703263563889e-10 -1.6697560139834957e-10 0.0000000000000000 -54.087034329299712 -108.37170302860723 113.84396407125838 191.01171882188567 0.0000000000000000 0.0000000000000000 0.0000000000000000 0.0000000000000000 3.2247270352999915 3.4617727373817302 1.2372447793883232 1.1111313156696070 854.44521378266438 854.44362035497750 1.1123167582015594 
-42.607950121804585 -107.96019132483427 104.66751674084263 -42.607950121804599 -107.96019132483431 104.66751674084256 -40.020281356683633 -1.2012650495340327e-05 2.5345980477222929e-05 7.0547580030269755e-06 0.0000000000000000 7.6035156505495721e-07 -7.3571799033141089e-07 1.4949094968714742e-05 0.0011977764980951337 1.9271807022271028e-10 -4.3284757375078606e-10 -1.5363951906790136e-10 0.0000000000000000 -41.690910404717421 -107.74885629568415 110.97670241767709 270.34727434602189 0.0000000000000000 0.0000000000000000 0.0000000000000000 0.0000000000000000 3.2188620674469299 3.4486673617542314 1.2299606103385294 1.1086799451283011 866.20764193585558 866.21183127960114 1.1090362154652658 