# For a description of the Tecplot format see the Tecplot User's guide.
#
Variables=x,y,z,s_u,s_v,s_w,s_p,mono_f_vel_u,mono_f_vel_v,mono_f_vel_w,const,u_nu,v_nu,w_nu,p_nu,x_nu,y_nu,z_nu,const,u_ref,v_ref,w_ref,vol_ref,x_ref,y_ref,z_ref,const,I1,I2,I3,J,p1,p2,p3
Zone f=fepoint, n=1339, e=6475, et=brick, c=black
-60.5698 -70.2496 173.121 -60.569840446511222 -70.249607018893158 173.12057461782817 -95.920017078958296 2.1172875601133595e-06 2.1656932601005144e-06 -1.0228297918210622e-06 -100.67602724262282 -6.0359318654334962e-09 2.3602719778637043e-10 -2.9984133291804937e-06 -0.0022100553722403920 1.7165982487467513e-12 9.9504072913660175e-12 -1.8885982586122446e-11 -0.0022151617072998188 -58.668039002000000 -70.473359259200009 176.35421013599998 215.13583165143561 0.0000000000000000 0.0000000000000000 0.0000000000000000 0.0000000000000000 3.3639369351633350 3.7565671940675434 1.3932726252074270 1.1792099745175377 1453.0194393017412 1453.0195189020631 1.1803735077970092 
-67.037975069828633 -76.314131011208630 181.74465464769224 -67.037975069828661 -76.314131011208630 181.74465464769222 -102.82633156055580 -2.1620256512713444e-05 -7.2529520830962541e-06 5.6177494259959621e-06 -104.65166742800328 -6.5851567532249078e-09 1.0606848732663819e-10 -2.1140129824459564e-06 -0.0021954205620513868 -3.4588456820593910e-11 1.0255437333938012e-11 -1.2769933679679504e-11 -0.0022034228824075425 -64.963123215600007 -76.414687385200040 184.02450960799996 253.42820447565578 0.0000000000000000 0.0000000000000000 0.0000000000000000 0.0000000000000000 3.3668946948592127 3.7631923388297035 1.3969708642809910 1.1792099745175375 1472.0179168768009 1472.0179187850883 1.1819477894058799 
-71.867659279980586 -71.383426618748857 174.11276850151623 -71.867659279980572 -71.383426618748871 174.11276850151623 -99.835296584837920 -7.0107772659967789e-06 -1.5889306287430482e-07 -2.8334536355778807e-06 -107.27715336247941 -6.9952529324623924e-09 2.1172108510825185e-10 -2.8966637337646262e-06 -0.0022141759159728697 -1.0677607430617831e-11 7.1063800265107180e-12 -2.1979315981429234e-11 -0.0022168295081646900 -69.663592608799988 -71.584146237200002 177.23667228800005 218.29881668600640 0.0000000000000000 0.0000000000000000 0.0000000000000000 0.0000000000000000 3.3684202038030624 3.7663544646238427 1.3986101466714123 1.1792099745175388 1472.2709998360785 1472.2709527803815 1.1826450534333370 
-59.025488677227528 -87.860778694449522 167.85483892148741 -59.025488677227500 -87.860778694449479 167.85483892148747 -75.884821850317238 -7.0044469793741858e-06 1.8370613326888275e-05 3.2262420942741849e-05 0.0000000000000000 -5.9047960965230564e-09 -1.4135070891541091e-10 -3.5384150756101462e-06 -0.0021960642211098199 1.5675006818902204e-12 4.1567295197719619e-11 2.6124755605798404e-12 0.0000000000000000 -57.165005282198301 -87.726774323660578 171.67083873969227 259.76550921814646 0.0000000000000000 0.0000000000000000 0.0000000000000000 0.0000000000000000 3.3512371285879574 3.7281005891557162 1.3773674282551618 1.1752459367915005 1377.5845918097962 1377.5843023374475 1.1736090406381685 
-91.631170292256840 -83.421751527139151 106.51279391529991 -91.631170292256840 -83.421751527139136 106.51279391529989 -28.551219970476545 1.8654678023321310e-05 2.8079500759169231e-05 -1.7146397939450487e-05 0.0000000000000000 -8.6734267545907090e-09 -4.6233905592885094e-11 -9.8290483911966947e-06 -0.0024273776273751550 4.3908302485438318e-11 1.8749457741970938e-11 -8.7886844630500373e-11 0.0000000000000000 -88.898344731952406 -83.377922378373768 117.11292023788836 283.91631954144174 0.0000000000000000 0.0000000000000000 0.0000000000000000 0.0000000000000000 3.3581090791557533 3.7425050862953486 1.3849283151366951 1.1777775865519122 1299.0054248417548 1299.0053616432424 1.1768315802712268 
-100.56760643568893 -66.603888591497366 96.514233835136849 -100.56760643568894 -66.603888591497366 96.514233835136835 -78.660945915859827 9.8707005419290981e-06 2.3970962848191533e-05 -8.7773772009008548e-05 -90.589078552597371 -9.4322522015133359e-09 3.1414693069109489e-10 -1.0854401793380930e-05 -0.0024266095304816778 2.0132598227734561e-11 5.4650881107510730e-12 3.8800348187485467e-11 -0.0024469257293317503 -97.595692787999965 -66.901700632800015 108.22015140479995 322.25788568967050 0.0000000000000000 0.0000000000000000 0.0000000000000000 0.0000000000000000 3.3640489675703829 3.7572017566747671 1.3938147597169765 1.1792099745175375 1420.3320259625777 1420.3320442455715 1.1806026031357015 
-82.141468070027045 -67.246696242802344 96.958714613673237 -82.141468070027045 -67.246696242802329 96.958714613673237 -82.734149988192414 -1.1169414146282809e-05 2.1583798722018104e-05 -3.4381057741662216e-05 0.0000000000000000 -7.8676410941724839e-09 3.0036728659865730e-10 -1.0808820253060956e-05 -0.0024693173044435684 2.6266289493730589e-11 2.0120029625304962e-11 -2.4504258065512984e-12 0.0000000000000000 -79.662532843379708 -67.531450170133141 108.61547480962874 295.38956150422752 0.0000000000000000 0.0000000000000000 0.0000000000000000 0.0000000000000000 3.3570774326662778 3.7411267639381269 1.3846176397515455 1.1769395526245841 1405.7215048196629 1405.7215096190446 1.1766915426566706 
-97.363991044630794 -81.851432954440625 96.970895124745326 -97.363991044630836 -81.851432954440668 96.970895124745326 -59.484429528457937 -1.6762729368692318e-05 3.3260252410061300e-05 -6.2787015079517029e-05 0.0000000000000000 -9.1602142537894338e-09 -1.2586376385570475e-11 -1.0807571133142346e-05 -0.0024043786941196727 -7.3580591470457117e-11 1.7513435658583340e-10 1.1755817574922961e-10 0.0000000000000000 -94.477787882002133 -81.839503548705352 108.62630821647583 293.80807890400462 0.0000000000000000 0.0000000000000000 0.0000000000000000 0.0000000000000000 3.3592634132367660 3.7453202209531886 1.3866150444447454 1.1774787414123569 1351.7822643972684 1351.7822517366697 1.1775422578359416 
-48.922250646635099 -126.89292366753145 130.74673668602085 -48.922250646635113 -126.89292366753136 130.74673668602091 8.4888933537572182 1.8403433163288939e-05 -1.9511856189719633e-06 1.2202230462146881e-06 0.0000000000000000 -5.5844247166578847e-07 4.6807590986345382e-07 -9.2800864102564044e-06 -0.0023498038937485974 3.5425091397266024e-11 6.6630654879723173e-12 -1.4109961489316466e-10 0.0000000000000000 -47.292355390977058 -125.96433165720771 138.67232254046354 244.31333887135355 0.0000000000000000 0.0000000000000000 0.0000000000000000 0.0000000000000000 3.3702290545346743 3.7708151419205755 1.4012930522070783 1.1843781473263701 1293.0799278773238 1293.0804720010228 1.1837620490911693 
-35.449663235231093 -141.66862068462154 131.34735163710616 -35.449663235231100 -141.66862068462157 131.34735163710607 10.397962263784054 1.1892360217982078e-05 1.0772253671428609e-05 3.4286216144068608e-06 0.0000000000000000 -2.1453398296883321e-07 1.9025900505116910e-07 -7.9356685079235983e-06 -0.0022241509050469942 1.3279966650892132e-10 9.5308931453418667e-11 -3.9896895285636213e-10 0.0000000000000000 -34.196989160350306 -140.43319657724166 139.21506628885933 210.16870282748488 0.0000000000000000 0.0000000000000000 0.0000000000000000 0.0000000000000000 3.3689337612161272 3.7684554858105477 1.4002381721195940 1.1834622078101042 1284.6777058488360 1284.6746302106874 1.1833171647164233 
-32.088020211370072 -128.60278097896318 135.31376095813826 -32.088020211370093 -128.60278097896310 135.31376095813820 -5.0209162479276088 1.0645674213495340e-05 -2.0379993997564762e-07 2.1159182539963991e-05 0.0000000000000000 -3.6174622186635474e-09 -1.0143708095711188e-09 -6.8755061342073986e-06 -0.0022384085154548853 -5.7200440377418476e-12 5.6320506300279436e-11 -3.2316987658367021e-10 0.0000000000000000 -30.948229910445860 -127.64113600963313 142.72864290474456 229.21992526850030 0.0000000000000000 0.0000000000000000 0.0000000000000000 0.0000000000000000 3.3623592903555131 3.7534392473789673 1.3917184806449707 1.1809413483993494 1292.8674666994314 1292.8667390549551 1.1797124513966635 
-50.068549074165205 -131.92544294061406 139.94450283948936 -50.068549074165205 -131.92544294061415 139.94450283948936 15.604446918932332 1.9540475418790350e-05 3.2142939647492056e-05 -1.7158450754588898e-05 0.0000000000000000 -5.6350385318847540e-07 5.7197096718732898e-07 -8.0930866585952881e-06 -0.0021631445042458869 -2.0643715425207753e-11 2.0121791537083292e-10 -2.0799933329241478e-10 0.0000000000000000 -48.406431667502837 -130.90513559487593 146.85896726379221 225.63426853136377 0.0000000000000000 0.0000000000000000 0.0000000000000000 0.0000000000000000 3.3745696668483736 3.7803212445332841 1.4064850471226586 1.1856915362337765 1285.9729257821373 1285.9714326350731 1.1859526783671752 
-54.733683166208216 -84.883245520660978 62.018839089639776 -54.733683166208252 -84.883245520660950 62.018839089639798 -55.922760722722202 -2.0987658191871442e-06 0.00014474120077347162 -0.00011745504518553219 0.0000000000000000 6.2081719618477054e-08 -2.5960409468047625e-07 -1.2610317046742117e-05 -0.0019805696392545024 -4.3555713492862031e-10 -4.6185963653983473e-10 4.1257652529445269e-09 0.0000000000000000 -53.009977022357148 -84.940192361847963 77.707205907375524 356.07450292316213 0.0000000000000000 0.0000000000000000 0.0000000000000000 0.0000000000000000 3.3712640018374693 3.7723813745731567 1.4017683571188935 1.1819303439474274 1342.0214342112349 1342.0214717083772 1.1838995752135955 
-41.678330650510297 -85.697603948990675 50.604830090488377 -41.678330650510290 -85.697603948990675 50.604830090488356 -192.37085680477753 2.4950455019770265e-05 3.4356710609574806e-05 -0.00011639202077229557 0.0000000000000000 6.1307814818282988e-07 1.1481522107236531e-07 -1.5488727509739159e-05 -0.0017472045634530657 6.7911209092383568e-10 6.2564358649769523e-11 -4.2754778306495509e-10 0.0000000000000000 -40.313282635619565 -85.652866469445740 67.489144002613742 334.72004880612383 0.0000000000000000 0.0000000000000000 0.0000000000000000 0.0000000000000000 3.3507966721411284 3.7286534112439860 1.3784423532450945 1.1761179806319304 1581.6177095163364 1581.6177214488052 1.1740451195169321 
-44.314005180455595 -94.285765766202204 68.344235594290950 -44.314005180455602 -94.285765766202218 68.344235594290936 -29.599800654579870 0.00012730290021147975 7.6695539614234169e-06 -4.5893007768693426e-05 0.0000000000000000 6.8409388535158412e-08 -1.5593678063087917e-06 -1.3091931161899627e-05 -0.0024356295472202807 -6.2447867322977020e-10 -2.1270422723462293e-09 -2.8131757348816281e-11 0.0000000000000000 -42.930125987095458 -94.071309017270835 83.274511392489799 283.94561953274422 0.0000000000000000 0.0000000000000000 0.0000000000000000 0.0000000000000000 3.3758106296980523 3.7830362475014989 1.4079621354476828 1.1821722751949399 1319.7318336136598 1319.7317119789298 1.1865711994724573 
-46.470930288675561 -99.336848510135226 51.310312286125416 -46.470930288675596 -99.336848510135198 51.310312286125438 -96.195789986013750 0.00018714135146141636 4.1140739602426025e-05 -0.00019368746793410930 0.0000000000000000 -4.8387561735196990e-09 -3.8726710727132746e-10 -1.5490068811629953e-05 -0.0017069759695868051 2.8556788813071350e-09 -2.3835565967821141e-09 1.3337787720234408e-09 0.0000000000000000 -44.946335306532468 -98.969717126470769 68.015559797458934 339.42980011114588 0.0000000000000000 0.0000000000000000 0.0000000000000000 0.0000000000000000 3.3685880331807700 3.7686690104340674 1.4008598060123583 1.1810420051193622 1396.9777667669334 1396.9777546172438 1.1835572449611365 
-36.850132057842103 -101.22417824414842 59.488238087188144 -36.850132057842082 -101.22417824414839 59.488238087188158 -115.91068300047922 9.5910695376757608e-05 2.7808905335761581e-05 -6.9862336426784844e-05 0.0000000000000000 -1.6600287503524266e-08 -7.4339615401784039e-07 -1.4478283947880255e-05 -0.0026617998687617325 -7.1402288720537302e-10 -5.9811654733190664e-10 3.0172267686036771e-10 0.0000000000000000 -35.672109309640206 -100.83293553867907 75.360366609178811 338.44965823895870 0.0000000000000000 0.0000000000000000 0.0000000000000000 0.0000000000000000 3.3461836944738788 3.7183090387309639 1.3726770088618874 1.1761604492402320 1438.2468161844122 1438.2466598751232 1.1716049317196597 
-50.611156903834072 -112.62923212425692 48.350561683609882 -50.611156903834065 -112.62923212425692 48.350561683609882 -73.314335021036541 0.00019081261494658825 -1.3725832034595901e-05 -9.2325202722458498e-05 -1.2080444918597499 -5.1903089604010688e-09 -6.7208949516839311e-10 -1.5793591554569275e-05 -0.0026013310811395453 2.2740187429616480e-10 -1.7830624520460312e-09 1.7488129489929781e-09 -0.0028799308916311406 -48.975793059600008 -111.99207679200002 65.383142959360015 326.57209562220959 0.0000000000000000 0.0000000000000000 0.0000000000000000 0.0000000000000000 3.3604312773573004 3.7481397991601333 1.3882752552990945 1.1797804946380719 1364.5626087490530 1364.5629859442327 1.1782316217819626 
-26.222396506543621 -111.08771194573126 50.696527265704425 -26.222396506543639 -111.08771194573133 50.696527265704404 -205.31632856999909 3.3467869580280968e-05 6.6691247417083627e-06 -8.4641480071195801e-05 0.0000000000000000 -3.1193954086461413e-09 -6.3905591929369621e-10 -1.5553012524094356e-05 -0.0026990853234684282 -5.9706496314284546e-11 -1.3268746501432526e-10 3.8920272984684159e-10 0.0000000000000000 -25.239536857883341 -110.48187134057846 67.469656361758609 349.35568362690350 0.0000000000000000 0.0000000000000000 0.0000000000000000 0.0000000000000000 3.3542337072369013 3.7358516741143402 1.3822186577896651 1.1767256984717629 1620.2053021565537 1620.2047367940195 1.1756755701087342 
-45.576518365606539 -111.89075534234256 60.796252551896174 -45.576518365606510 -111.89075534234249 60.796252551896195 -51.319171258706767 8.7942434790599458e-05 -9.3063926548914131e-05 -4.0101293536946765e-05 0.0000000000000000 -4.7628055943604872e-09 -6.5627325795958313e-10 -1.4517284618875694e-05 -0.0030867350054989149 -5.9284639378480152e-10 1.3783654246859365e-09 -1.1688298954516975e-09 0.0000000000000000 -44.075852747763513 -111.26860156453857 76.452402029906395 268.59635586333832 0.0000000000000000 0.0000000000000000 0.0000000000000000 0.0000000000000000 3.3702014788964867 3.7719624437578281 1.4025215328040190 1.1816782308932314 1380.2126027667762 1380.2136649084182 1.1842907528418565 
-60.179294558249921 -107.08248437313470 93.234796285608397 -60.179294558249921 -107.08248437313475 93.234796285608368 16.329910295763266 1.5508626949587099e-05 1.0281376901159359e-05 8.2133812717638885e-06 0.0000000000000000 -4.4849625530600236e-08 -8.3601864251523975e-07 -1.1795172031489700e-05 -0.0030667350869763754 2.1151582389907536e-10 4.0200101696192748e-10 -7.1255269860000758e-11 0.0000000000000000 -58.254647241440821 -106.62760994408018 105.33920711112118 241.62621693813244 0.0000000000000000 0.0000000000000000 0.0000000000000000 0.0000000000000000 3.3763902712365406 3.7852793420279376 1.4096995351140784 1.1867144405737491 1287.4494789252710 1287.4504691942350 1.1873046766138937 
-66.537057628474074 -90.117939223135480 83.426676603274927 -66.537057628474045 -90.117939223135465 83.426676603274927 3.1449199365148588 -1.6843441622158714e-05 -2.8490442680446170e-05 5.3577841114998600e-05 0.0000000000000000 6.7854226299552591e-07 -5.5789574223146626e-07 -1.1714789569659781e-05 -0.0028481150080873871 2.0459507801866220e-09 -3.3914006746566210e-10 1.7204344049013232e-09 0.0000000000000000 -64.370648572599308 -90.090304358695661 96.688480747766732 239.98138923263960 0.0000000000000000 0.0000000000000000 0.0000000000000000 0.0000000000000000 3.3786413113001528 3.7899733354201235 1.4121057229924394 1.1841635808641866 1296.2843082673355 1296.2843250861906 1.1882968776150380 
-78.401712847587135 -99.980318659270409 88.660254937265137 -78.401712847587092 -99.980318659270367 88.660254937265123 8.1729623366971662 -1.8338310897830124e-05 3.2222931675682638e-05 -1.3852408188000355e-05 0.0000000000000000 3.4684204088406236e-07 -6.2284967340845663e-07 -1.1500440179009987e-05 -0.0028044706665000660 1.2813369440663436e-10 -5.4043070526180519e-11 2.3160544991515297e-10 0.0000000000000000 -75.913673002404863 -99.702254402691466 101.32606574872912 288.13617662859207 0.0000000000000000 0.0000000000000000 0.0000000000000000 0.0000000000000000 3.3794735408376324 3.7923750355982131 1.4137460078182327 1.1860082580368851 1296.0794243518833 1296.0793147682371 1.1890278595954549 
-57.024166608124474 -93.737853085110373 90.939274107088281 -57.024166608124467 -93.737853085110359 90.939274107088281 0.77868920620987359 3.3300601787144116e-06 2.3040992196683459e-05 3.1276879014470129e-05 0.0000000000000000 6.1680284952457664e-08 -5.6008351868342215e-07 -1.1930544730529041e-05 -0.0031002889709742121 -4.5995046303693378e-10 5.3172953889762984e-10 -8.5853544093747074e-10 0.0000000000000000 -55.164710769962618 -93.586508083202432 103.32606452766413 222.68531933077850 0.0000000000000000 0.0000000000000000 0.0000000000000000 0.0000000000000000 3.3751890124289710 3.7816730777215399 1.4072128680990017 1.1853797909932664 1321.5501086022987 1321.5499486240767 1.1862585982329217 
-47.309816620391935 -177.85803053709867 149.84090313460254 -47.309816620391963 -177.85803053709876 149.84090313460266 23.781174431768878 -2.3530342583516185e-05 -4.7904074819672331e-06 3.2402746861894303e-05 0.0000000000000000 -4.9099885268688581e-09 -2.0698212033209984e-09 -5.3857461246309413e-06 -0.0019257516731134552 -1.5500074665430980e-10 -9.2868476770547560e-11 2.2688305649862295e-10 0.0000000000000000 -45.762777822239421 -175.89580528354742 155.64915507299250 248.91339099022119 0.0000000000000000 0.0000000000000000 0.0000000000000000 0.0000000000000000 3.3735700591338396 3.7767629635576410 1.4038524105469030 1.1834246830161435 1256.2373569672138 1256.2277266178642 1.1848343736063749 
-53.138475945949551 -187.72548599164017 163.90036934298232 -53.138475945949551 -187.72548599164017 163.90036934298229 21.285277130387474 8.1067888273844939e-06 -8.5116674329898001e-06 -9.4036022147140156e-06 13.095450062472636 -5.4049139608380870e-09 -2.2812614020040201e-09 -3.9439463712653833e-06 -0.0018504103160311418 7.7888832654245335e-11 -7.6114631446654706e-11 -9.6608992122877489e-11 -0.0018531260750588171 -51.435495451599998 -185.56281141599996 168.15371392000000 294.81703600272857 0.0000000000000000 0.0000000000000000 0.0000000000000000 0.0000000000000000 3.3607902826716658 3.7498786092834919 1.3897185341039917 1.1796219562872035 1232.8218598185836 1232.8234319995433 1.1788663156027341 
-44.136578503090313 -173.03316730587696 161.77419377697834 -44.136578503090306 -173.03316730587690 161.77419377697834 23.110840412891825 8.7919979924082396e-06 -7.2682490841646758e-06 -2.4055632315480502e-06 0.0000000000000000 -2.1532134731979599e-08 3.1293971601771106e-07 -4.3882164591845984e-06 -0.0018967466778429206 3.5937219227258863e-11 1.3521307875143348e-10 -2.1185545827321386e-10 0.0000000000000000 -42.672974891599750 -171.18173466392949 166.26923354793541 271.88244999766295 0.0000000000000000 0.0000000000000000 0.0000000000000000 0.0000000000000000 3.3641882939797556 3.7571015654317494 1.3935569772312302 1.1808269251232948 1234.4919113852591 1234.4940359034781 1.1804910089734408 
-61.304183191202135 -180.02360043968829 152.20367499474986 -61.304183191202135 -180.02360043968835 152.20367499474980 14.893710690739603 1.7129421560304608e-06 -4.0316827592739649e-06 -3.3471161094362021e-06 0.0000000000000000 -6.0982859872993336e-09 -2.1162169794308738e-09 -5.1434436230124447e-06 -0.0019498138869516969 4.4318879082583503e-11 5.0740857689639147e-11 -1.2984441045917451e-10 0.0000000000000000 -59.382734921100123 -178.01738339707751 157.75061606229067 243.94852352315442 0.0000000000000000 0.0000000000000000 0.0000000000000000 0.0000000000000000 3.3637657820255664 3.7557020892252053 1.3925501822300115 1.1806412499960761 1244.7935406433533 1244.8054191599613 1.1800644326187879 
-31.763121489435260 -103.15927217526625 81.943313750403263 -31.763121489435246 -103.15927217526628 81.943313750403320 -11.601210327343866 1.8716467598450369e-05 5.1975953225233443e-05 -8.1810263911509756e-05 0.0000000000000000 2.2943779485298281e-07 -7.0053512817997116e-07 -1.2690014361929279e-05 -0.0030893234248387819 4.1926307488423892e-10 -3.6247847794440409e-10 2.1256388426090844e-10 0.0000000000000000 -30.660097366607719 -102.72526557899965 95.328291536857705 204.58703120518373 0.0000000000000000 0.0000000000000000 0.0000000000000000 0.0000000000000000 3.3713037356667415 3.7705856667058839 1.3998733826000629 1.1818552958328084 1299.0253186491389 1299.0259837606418 1.1831551686966184 
-19.610175868237238 -111.52058520420618 79.799558761708155 -19.610175868237246 -111.52058520420623 79.799558761708155 -77.993727897352542 6.3350294180910326e-05 -4.0811375102650024e-06 -9.2296573246679968e-05 0.0000000000000000 -2.5579337536996150e-09 -6.4833294288746412e-10 -1.2568493520603852e-05 -0.0030712669599053072 -3.2792200874233309e-10 -9.9315165721499933e-11 1.5963885752677098e-10 0.0000000000000000 -18.804221549666405 -110.90595113131390 93.354036648627854 267.24800799435923 0.0000000000000000 0.0000000000000000 0.0000000000000000 0.0000000000000000 3.3572184611434177 3.7402576272427654 1.3835682264287932 1.1779345755308199 1404.1591082848870 1404.1537905516304 1.1762557188485969 
-34.944316781636232 -105.21860355072405 70.292257293024434 -34.944316781636218 -105.21860355072400 70.292257293024463 -63.912736544321454 7.8593956009154678e-05 -2.9952855551725582e-05 -6.5112035612262457e-05 0.0000000000000000 2.9147176120716593e-07 -7.9682948692171940e-07 -1.3524037842734861e-05 -0.0029820599228101360 -3.0764670926237178e-11 -1.0467680499053511e-10 3.3642904666886168e-10 0.0000000000000000 -33.815892125380543 -104.71065599625929 85.007910193808286 270.69679205096202 0.0000000000000000 0.0000000000000000 0.0000000000000000 0.0000000000000000 3.3538481833123517 3.7350639706918867 1.3818213162687620 1.1777183368425377 1355.7082194969844 1355.7086486168703 1.1754842993486321 
-19.730353303934766 -100.77604870719782 82.097755270035421 -19.730353303934763 -100.77604870719780 82.097755270035407 -45.923565477374403 3.2374693595022981e-05 -2.0042416222437669e-05 -1.3726477374158842e-05 0.0000000000000000 -2.5681402560095989e-09 -4.1810199746805655e-10 -1.2332813231097363e-05 -0.0029088055201855574 -2.1894130093175043e-10 -2.8767350300172996e-10 1.1459140054847785e-11 0.0000000000000000 -18.921183722278450 -100.37968114352928 95.398064000337470 185.31956687594098 0.0000000000000000 0.0000000000000000 0.0000000000000000 0.0000000000000000 3.3635916595999955 3.7544519162953955 1.3914354285644353 1.1791669251854482 1366.5124560984941 1366.5141820639337 1.1796000747856541 
-32.252300714372737 -118.70959614058941 169.61893845808996 -32.252300714372730 -118.70959614058940 169.61893845808993 -9.2451298974906795 4.8658065913243715e-05 6.2876718015302053e-05 -1.3384570959001467e-05 0.0000000000000000 -1.8359592214016273e-07 1.2000889635346708e-07 -3.4114324625309078e-06 -0.0022158208524001612 -2.0514113293620783e-10 8.7859680335030020e-11 5.9631481333758886e-11 0.0000000000000000 -31.124431206993112 -117.97934695114738 173.21200361760444 258.17126679857051 0.0000000000000000 0.0000000000000000 0.0000000000000000 0.0000000000000000 3.3657386612194804 3.7597223934588340 1.3945948675536097 1.1816117329676432 1293.8774070589677 1293.8775354353029 1.1809267712239129 
-31.775391771746925 -134.19365713384647 160.14327085729752 -31.775391771746939 -134.19365713384647 160.14327085729749 6.3942466929993715 1.6578168672777937e-05 9.9128454171560024e-06 -9.1515399355822751e-06 0.0000000000000000 -2.5339266586334850e-07 1.8910485330330598e-07 -4.4488265544848900e-06 -0.0020519841397615419 -1.4590830023090738e-10 1.7343111725365515e-10 -1.5844728712589488e-11 0.0000000000000000 -30.642131568542830 -133.13454878399213 164.80820313575899 262.24283076768535 0.0000000000000000 0.0000000000000000 0.0000000000000000 0.0000000000000000 3.3680916740836615 3.7654974062915452 1.3980648227909995 1.1824102064445949 1281.4301893441348 1281.4300225277739 1.1823974839042244 
-44.141887325753515 -120.85513844627468 158.94187860450899 -44.141887325753494 -120.85513844627471 158.94187860450896 22.312394218900025 5.0529250034268928e-05 5.0132853573360994e-06 -1.3388670669439932e-05 0.0000000000000000 -2.7877920781549918e-07 3.1069099109288191e-07 -4.9005187130265887e-06 -0.0021913044513251797 9.4493908686870911e-11 -5.2592229633882129e-11 7.4678133936682059e-10 0.0000000000000000 -42.676694985445003 -120.10595080876966 163.70375490782192 268.28772502602959 0.0000000000000000 0.0000000000000000 0.0000000000000000 0.0000000000000000 3.3784001840017783 3.7888055257579114 1.4111756858612738 1.1871365747573259 1279.4144019349296 1279.4140581706970 1.1879233852325444 
-24.689162372076893 -114.91760930888523 156.77094825759536 -24.689162372076904 -114.91760930888529 156.77094825759548 -29.424373428351974 2.0367489652638396e-05 1.8115691179682639e-05 1.0779143589006917e-05 0.0000000000000000 -2.9892056607749846e-09 -7.2112271709556808e-10 -4.6750692490604715e-06 -0.0021407010225094765 2.2065263399376978e-11 7.2164069495141076e-11 -2.5307893299961568e-11 0.0000000000000000 -23.747323328369049 -114.23396745764113 161.81277151251504 321.01516800445251 0.0000000000000000 0.0000000000000000 0.0000000000000000 0.0000000000000000 3.3593261703041293 3.7459295374114672 1.3871819756351895 1.1789996186426197 1323.8548812125712 1323.8549219646638 1.1777914058226073 
-6.9301572949502583 -105.47946642849236 97.763774964613674 -6.9301572949502592 -105.47946642849234 97.763774964613702 10.102291468378137 3.6483852161475648e-06 -5.3421911633398318e-06 -4.7293708174136970e-05 36.594692005403431 -1.4812402415742554e-09 -5.1888493501905931e-10 -1.0726261216120747e-05 -0.0024709391517392723 1.3525430965862364e-10 -3.0001780787129834e-10 -5.4826686169220110e-10 -0.0023256754871114798 -6.4634479885999987 -104.98755276399999 109.33149947120000 327.67017865987640 0.0000000000000000 0.0000000000000000 0.0000000000000000 0.0000000000000000 3.3619544989671200 3.7522674892086418 1.3909382921092981 1.1795621018533686 1227.3552286706970 1227.3562958709565 1.1793805012827130 
-12.420436308394965 -97.445592599567831 88.888384589921429 -12.420436308394967 -97.445592599567831 88.888384589921429 -32.230206406112046 5.7029988935357708e-06 -1.6939447806927548e-05 -6.5503894437088129e-05 -27.656825933439528 -1.9474336587776975e-09 -3.4673419690989249e-10 -1.1636433466577500e-05 -0.0027396410707410121 -2.4405850571667208e-11 4.2605318263406645e-11 -2.5686669828712562e-10 -0.0027439747277005935 -11.806838433999999 -97.116880539599975 101.43768333439998 212.90238721710071 0.0000000000000000 0.0000000000000000 0.0000000000000000 0.0000000000000000 3.3618310566234548 3.7517925831638310 1.3905781118277758 1.1792099745175373 1328.9631207842706 1328.9633466429007 1.1792274972514465 
-16.574337222173504 -110.96341847619647 90.754512435622729 -16.574337222173501 -110.96341847619645 90.754512435622715 -24.584844448403761 1.5393973435473114e-05 -1.1262608172811043e-05 -0.00012675309998464625 0.0000000000000000 -2.3001529014798905e-09 -6.3639138403459583e-10 -1.1445061847581428e-05 -0.0027393490004854752 3.6493999499777164e-10 -1.8624974222652697e-10 -5.1469253862983534e-10 0.0000000000000000 -15.849604639409371 -110.36010279166017 103.09742667861765 236.22178992679409 0.0000000000000000 0.0000000000000000 0.0000000000000000 0.0000000000000000 3.3585177037263296 3.7448038309462959 1.3868957337413510 1.1788813211318783 1308.1205863837667 1308.1147623469342 1.1776656903549307 
-24.691479696489242 -99.913048885118371 89.837517605594400 -24.691479696489250 -99.913048885118329 89.837517605594428 -8.8425934704156202 3.0634221719939580e-05 3.6387693415807977e-05 -7.1006381218463471e-05 0.0000000000000000 -2.9894015041165294e-09 -3.9960434961017199e-10 -1.1539099762813976e-05 -0.0027657290422276933 -4.7779831791597346e-10 3.7475378982627880e-11 -5.1090236134651751e-10 0.0000000000000000 -23.749578654390465 -99.534212460059550 102.28184693721489 211.57004919854941 0.0000000000000000 0.0000000000000000 0.0000000000000000 0.0000000000000000 3.3622774481295270 3.7530373912096029 1.3913932550345587 1.1801937339704607 1285.3224938345566 1285.3235364504480 1.1795736972608639 
-55.909031360721215 -108.89390687163751 102.80654380203706 -55.909031360721208 -108.89390687163750 102.80654380203710 12.328955296577567 1.8759408162445826e-06 -2.0035347521336744e-05 7.9611392324606088e-06 0.0000000000000000 -5.9703489515394021e-07 -8.9095931815343752e-07 -1.1405290531679659e-05 -0.0034847368207821141 -7.1903582810507208e-10 -9.7470597030287846e-10 1.7941015358660661e-09 0.0000000000000000 -54.087034329299712 -108.37170302860723 113.84396407125838 191.01171882188567 0.0000000000000000 0.0000000000000000 0.0000000000000000 0.0000000000000000 3.3718430778364974 3.7746740407262807 1.4035754372004279 1.1850391143814338 1285.0702727473190 1285.0740365993991 1.1847269749313005 
-43.167899901029514 -108.26243276222922 99.571578861792460 -43.167899901029529 -108.26243276222928 99.571578861792503 13.835512802766345 -4.2941948516656006e-06 -1.1026781839921822e-05 1.0729710262344051e-05 0.0000000000000000 -4.7324293138144817e-07 -4.6797219279426813e-07 -1.1742725273365534e-05 -0.0026336028558693633 -5.6758224733941907e-10 9.4345369476238379e-10 4.6298554802731046e-10 0.0000000000000000 -41.690910404717421 -107.74885629568415 110.97670241767709 270.34727434602189 0.0000000000000000 0.0000000000000000 0.0000000000000000 0.0000000000000000 3.3735062568198666 3.7774593193910380 1.4046626982719281 1.1849893020442113 1286.6871586295749 1286.6872739375247 1.1851842085638569 