# For a description of the Tecplot format see the Tecplot User's guide.
#
Variables=x,y,z,s_u,s_v,s_w,s_p,mono_f_vel_u,mono_f_vel_v,mono_f_vel_w,const,u_nu,v_nu,w_nu,p_nu,x_nu,y_nu,z_nu,const,u_ref,v_ref,w_ref,vol_ref,x_ref,y_ref,z_ref,const,I1,I2,I3,J,p1,p2,p3
Zone f=fepoint, n=356, e=1130, et=brick, c=black
-67.3263 -97.7706 82.3583 -67.326317599694377 -97.770637581821561 82.358346385725582 -409.11704730124046 -8.6737076066051427e-05 7.7538796302167409e-05 0.00072023515764842053 2.2130059084000974e-18 8.6454433084748330e-08 4.6343637816192995e-09 0.00015720386647544160 0.010043495428075261 2.6717995147676671e-09 -3.1034161775339214e-09 -9.7826850364986906e-09 -2.0605113310305614e-19 -65.754724465942431 -97.517594547729473 92.373562431030237 2074.8615187338191 0.0000000000000000 0.0000000000000000 0.0000000000000000 0.0000000000000000 3.2634321946621396 3.5421580066315657 1.2789791260870196 1.1308780311059299 1962.0679669481890 1979.7934632500042 1.1309186570860914 
-77.524600322205174 -131.32767037910824 67.640952778691798 -77.524600322205174 -131.32767037910824 67.640952778691812 -246.06460411215883 -0.00033965503931472949 -8.5625563088106491e-05 7.7855901633377503e-05 -21.145483370246986 9.7781283431297439e-08 1.4055854480332640e-08 0.00017648400616465665 0.0079806903841803997 1.1440069262969907e-08 4.1914650577074294e-09 -4.3466482001579223e-09 4.3265805167154304e-05 -75.747104543999981 -130.56019973999997 78.884476808000016 2128.8259272129790 0.0000000000000000 0.0000000000000000 0.0000000000000000 0.0000000000000000 3.2632771835461507 3.5419120399517747 1.2788891101715607 1.1308780311059303 1681.2665718272253 1549.6446715582385 1.1308773056007895 
-64.945805496788807 -122.42562083666078 59.301061773137327 -64.945805496788807 -122.42562083666077 59.301061773137334 -93.615012493712683 0.00022742921371007692 3.0835286039627319e-05 -2.0848034207189752e-05 158.65060258968629 8.3810487799818034e-08 1.1556511303467687e-08 0.00018740946400797045 0.0043910983302979344 -7.4872503500106482e-09 3.3795414316766706e-10 -3.7344725695871531e-10 -0.0041142690477816721 -63.422274742800013 -121.79461816400000 71.240629883439979 1237.7701333319521 0.0000000000000000 0.0000000000000000 0.0000000000000000 0.0000000000000000 3.2639051480460930 3.5429695271609920 1.2793098368541151 1.1308780311059308 1307.8452153936478 1267.1710439875387 1.1310668129177730 
-57.526044399266162 -132.87067196286159 65.193640388159380 -57.526044399266169 -132.87067196286162 65.193640388159366 -177.61605012317096 0.00035039767407599523 -9.2277503451676775e-05 -0.00011569176694449455 -241.90994133500814 7.5569638019468144e-08 1.4489067945433476e-08 0.00017969004425921753 0.0056629300920310807 -1.1861303547012913e-08 4.0588481966820385e-09 5.0314164154985259e-09 0.015770543325872233 -56.152318124399997 -132.07954718800002 76.641416164000006 2090.5778096190215 0.0000000000000000 0.0000000000000000 0.0000000000000000 0.0000000000000000 3.2619145263742619 3.5391487952034884 1.2774901563693033 1.1308780311059299 1599.8174499536776 1692.5329230479788 1.1302587937453856 
-125.64694847314962 -110.84081146658534 78.903902830269075 -125.64694847314965 -110.84081146658534 78.903902830269075 -576.01412042722416 -1.9953446148430222e-05 -2.1043555211625076e-05 3.2117403516732436e-05 -475.16513377967806 1.5122895882790921e-07 8.3039495279990660e-09 0.00016172927063351494 0.017695400284888287 5.5861305819319020e-10 4.5813017862382212e-10 3.5469047791998244e-09 0.018371363028671650 -122.89786571200003 -110.38740333199999 89.207425400000020 2092.2379289329847 0.0000000000000000 0.0000000000000000 0.0000000000000000 0.0000000000000000 3.2637103695843672 3.5426714894088569 1.2792107709383556 1.1308780311059288 2332.3238580486727 2317.4671221295243 1.1310228449569146 
-125.51625974447941 -129.23957531605788 83.567653198001366 -125.51625974447940 -129.23957531605788 83.567653198001366 -618.18135757390201 -5.5292608872986569e-06 -0.00020262796239835419 -0.00015571284643037931 -883.87592555005040 1.5108381359874021e-07 1.3469597437421044e-08 0.00015561964546506601 0.017153328892602543 2.4930802983604272e-10 5.0562107502954144e-09 3.9159368250097469e-09 0.021042209737649257 -122.76981557999994 -128.50411506799998 93.481940963999989 2295.0048277193882 0.0000000000000000 0.0000000000000000 0.0000000000000000 0.0000000000000000 3.2637364132434623 3.5426436998709452 1.2791530936160347 1.1308780311059294 2697.4943146800510 2668.1565769782896 1.1309968714127989 
-89.350199005299032 -120.14927700705738 99.420503209319335 -89.350199005299103 -120.14927700705734 99.420503209319278 -318.97980076442502 3.9272164783465633e-05 0.00035857513121324337 -0.00034116603463064422 -8.2596309551412240e-19 1.1091553067665849e-07 1.0917403869825648e-08 0.00013485203056617934 0.0095510511489778453 -3.5310373915961967e-10 -1.0510388959678257e-08 5.1794982960155103e-09 6.8956482202024740e-20 -87.333945182495114 -119.55317056945796 108.01171823852533 1853.2119812635015 0.0000000000000000 0.0000000000000000 0.0000000000000000 0.0000000000000000 3.2629496628738552 3.5412620276691498 1.2785732342103981 1.1308780311059297 1913.9764919921870 1920.8952436343238 1.1307411355470836 
-124.62526846222461 -119.53599622238109 98.357745034551471 -124.62526846222462 -119.53599622238109 98.357745034551485 -305.93350477413719 -5.3622274916026917e-05 4.4977764502375068e-05 -0.00059091466677590142 -303.57494000965954 1.5009422385525717e-07 1.0745208056661681e-08 0.00013624426934910619 0.0098529265363132661 -1.0283223007857631e-10 -2.9930788060505530e-09 6.8264766442274696e-09 0.0077125700885427506 -121.89681335200000 -118.94929134799999 107.03765745040002 1571.7251237143605 0.0000000000000000 0.0000000000000000 0.0000000000000000 0.0000000000000000 3.2634189187098523 3.5420307766334096 1.2788563102496413 1.1308780311059297 1866.2980637936912 1869.1409371230652 1.1308654037500536 
-45.302436194089623 -164.90655585752916 116.48265448771562 -45.302436194089630 -164.90655585752924 116.48265448771559 -80.051719519345454 9.4724961474339418e-05 7.8498849360913673e-06 -4.7599298331786957e-05 0.0000000000000000 6.1993342043153987e-08 2.3483486488728996e-08 0.00011250020192932195 0.0024716391587585110 -1.0129560736199939e-09 1.6406347548159636e-09 -2.1560051455089147e-09 0.0000000000000000 -44.175503749389662 -163.62432261291502 123.64986896362305 1288.7765825848380 0.0000000000000000 0.0000000000000000 0.0000000000000000 0.0000000000000000 3.2686425431192778 3.5539813645119764 1.2856394309861479 1.1333512735159010 1534.5164784368744 1800.2869081230720 1.1338600173212112 
-16.013825191732280 -144.83937280567733 130.02610473704493 -16.013825191732280 -144.83937280567736 130.02610473704496 -111.97409750933465 1.4003973300818586e-05 -0.00010414198404715076 -5.7783437161208741e-05 85.707020679644046 2.9463585321520824e-08 1.7849408395775868e-08 9.4757956272673041e-05 0.0034109231643008799 -6.5692839737466515e-10 1.4350827722388151e-09 -1.4806580468368489e-09 0.0037385905193819246 -15.478227839600008 -143.86476845600004 136.06298808800005 1207.7015194609139 0.0000000000000000 0.0000000000000000 0.0000000000000000 0.0000000000000000 3.2628373978149536 3.5408102381538331 1.2782176522291180 1.1314122925197871 1629.7543015099282 1609.7232440881889 1.1305793571907381 
-45.302436194089623 -164.90655585752916 133.54480576611186 -45.302436194089594 -164.90655585752930 133.54480576611184 -141.10883126451179 5.2143319353749153e-05 -4.9266452756644139e-05 1.8699805396620078e-05 0.0000000000000000 6.1993342043153987e-08 2.3483486488729000e-08 9.0148373292464598e-05 0.0048728973527618355 -1.4861835769937543e-09 1.4109467455848718e-09 -2.6293062376278780e-10 0.0000000000000000 -44.175503749389669 -163.62432261291511 139.28801968872074 2260.0113226803110 0.0000000000000000 0.0000000000000000 0.0000000000000000 0.0000000000000000 3.2626248340474184 3.5403977499330530 1.2780194785187440 1.1317763092712887 1675.3586414382369 1626.9988601887906 1.1304974021246528 
-6.2197285342749922 -162.70724725567365 123.87515683010716 -6.2197285342749922 -162.70724725567365 123.87515683010719 -271.81284128800564 9.0237513578528633e-05 -1.8865786830222722e-06 0.00011388091908155915 -454.61107322964193 1.8585649769198298e-08 2.2866008864141918e-08 0.00010281584601656847 0.0085486674552989923 -2.5853129040489669e-09 2.7186698813500141e-09 -2.4941207527266089e-09 0.0078454929102817518 -5.8818733370400009 -161.45872929999999 130.42539591680000 1840.5999298976626 0.0000000000000000 0.0000000000000000 0.0000000000000000 0.0000000000000000 3.2627108442166910 3.5404696960347888 1.2780025971305804 1.1308780311059297 1931.0237468294583 1900.5444375934421 1.1304882930104780 
-10.198861638642750 -107.51133702483511 181.22527689526709 -10.198861638642752 -107.51133702483513 181.22527689526711 -205.89264980029375 3.2673820871392368e-05 3.9333254775137989e-05 -7.6555222863310842e-05 -209.93249280878675 2.3005122778974041e-08 7.3691643898143858e-09 2.7685809062205635e-05 0.0072704200678016173 1.6159359444798918e-10 -8.4028475365064105e-10 6.2151389947507135e-10 0.0067416589344713321 -9.7806680107999995 -107.10896956400003 182.98909712000000 1021.2952016557671 0.0000000000000000 0.0000000000000000 0.0000000000000000 0.0000000000000000 3.2635022215358420 3.5422225479348515 1.2789691961066350 1.1308780311059288 1752.1041698557494 1746.9456507327159 1.1309152425021691 
-18.144379832696494 -109.06339490109163 192.57755314044920 -18.144379832696497 -109.06339490109164 192.57755314044923 -226.83359433489039 -0.00010957309506175090 8.7346239158710238e-05 7.5132563554489219e-05 -248.34210060038998 3.1829910124292482e-08 7.8049249285783162e-09 1.2814054073828629e-05 0.0079245910598378377 1.8572430430917703e-09 -2.4187310992643663e-09 -1.5704096281998399e-09 0.0095166691360632268 -17.565766725200003 -108.63723447200002 193.39391677600000 1230.2822850381203 0.0000000000000000 0.0000000000000000 0.0000000000000000 0.0000000000000000 3.2634997045470930 3.5422076300602781 1.2789564137259275 1.1308780311059290 1819.3890873072592 1815.0157851377057 1.1309093224283873 
-45.302436194089623 -120.14927700705738 167.66910832290444 -45.302436194089651 -120.14927700705736 167.66910832290466 -244.12448414064647 -1.3341028922876433e-05 3.9614077172635778e-05 0.00010674198914075686 0.0000000000000000 6.1993342043153987e-08 1.0917403869825648e-08 4.5444716011644459e-05 0.0080397366976946959 2.0690768027930319e-10 -1.7125587325499963e-09 -1.5844861442986684e-09 0.0000000000000000 -44.175503749389591 -119.55317056945772 170.56432113891603 1872.3464537223574 0.0000000000000000 0.0000000000000000 0.0000000000000000 0.0000000000000000 3.2631077611562209 3.5414408947946390 1.2785836578583296 1.1308780311059299 1818.3553174030549 1827.6009222463363 1.1307461488809929 
-9.7407849791990007 -125.06862830666952 187.63583041515659 -9.7407849791990007 -125.06862830666954 187.63583041515656 -231.35824977048978 4.6082836586907093e-05 -0.00026661371942728491 -0.00011052323587537702 -239.82981620222907 2.2496354529222277e-08 1.2298556395506919e-08 1.9287829719161209e-05 0.0074990314726557259 6.7702648558483049e-10 6.0716334611342013e-09 8.9024894719461011e-10 0.0063740382182311695 -9.3318398883999993 -124.39710846400000 188.86462832000004 1016.3527334425750 0.0000000000000000 0.0000000000000000 0.0000000000000000 0.0000000000000000 3.2635103609598248 3.5422241802814689 1.2789620848993815 1.1308780311059283 1877.2276032588031 1878.4135026363806 1.1309116168395434 
-45.302436194089623 -164.90655585752916 99.420503209319335 -45.302436194089623 -164.90655585752927 99.420503209319293 -183.10898745174680 -8.9305010202191129e-05 -0.00033168139551391807 -8.3997114569920488e-05 1.0603696413137704e-17 6.1993342043153987e-08 2.3483486488729000e-08 0.00013485203056617934 0.0062934736665133028 1.0739556235987771e-09 1.1979988033868688e-08 2.8270480932232119e-09 -1.0027830075096650e-18 -44.175503749389662 -163.62432261291499 108.01171823852535 1450.3671205666894 0.0000000000000000 0.0000000000000000 0.0000000000000000 0.0000000000000000 3.2655967332194660 3.5466521105740774 1.2813111611316410 1.1323528659422677 1477.8797218497664 1647.8144075980608 1.1319446483354587 
-62.630438417484726 -162.19551906454626 75.407447391056962 -62.630438417484719 -162.19551906454626 75.407447391056948 -610.99676540607720 -0.00014938813918843159 -0.00058499538725022206 -0.00012995069871669490 -151.56806516113997 8.1238898635982424e-08 2.2722327353008609e-08 0.00016630971137487907 0.016721540073093316 3.9761788593646129e-09 1.8505155057641557e-08 6.0946665181848144e-09 0.014727104437091331 -61.153654769600031 -160.95484587600001 86.002782780800032 1645.6757988676138 0.0000000000000000 0.0000000000000000 0.0000000000000000 0.0000000000000000 3.2518140021574875 3.5179916522518497 1.2664121361911145 1.1283968150704120 2497.2973253518512 2478.8969484106224 1.1253530187846652 
-45.360809505544786 -169.35199205935336 72.432790657400304 -45.360809505544800 -169.35199205935336 72.432790657400318 -986.19175604556608 0.00026729120791001794 -0.00095397212613181461 -0.00016806875679089905 -729.59674152290597 6.2058169630896387e-08 2.4731570347213960e-08 0.00017020658326671878 0.024406264129408588 -5.6665341388462039e-09 2.8235094780869855e-08 7.9235764910749555e-09 0.028739482756575122 -44.232698507600013 -168.00161050399998 83.276389748800028 1737.4139093181343 0.0000000000000000 0.0000000000000000 0.0000000000000000 0.0000000000000000 3.2645796100944930 3.5444467560943669 1.2801169445160148 1.1308780311059297 3152.8009263703648 3123.9323899039714 1.1314243175645837 
-45.302436194089623 -187.28519528276502 99.420503209319335 -45.302436194089587 -187.28519528276502 99.420503209319236 -836.32510623546409 2.5641044573160986e-05 -0.00031290266227687938 -0.00078944481074319831 -5.4542556845907718e-19 6.1993342043153987e-08 2.9766513476303658e-08 0.00013485203056617934 0.022032886193193997 -3.1630750017819217e-10 1.0618660858270252e-08 9.7150560603407934e-09 5.4256540616898635e-20 -44.175503749389676 -185.65989863464350 108.01171823852533 1616.4576808433910 0.0000000000000000 0.0000000000000000 0.0000000000000000 0.0000000000000000 3.2607556213712456 3.5364484783530399 1.2759347533835379 1.1303364579344932 2949.3019229250308 2988.0133981300755 1.1295718638815513 
-89.350199005299032 -142.52791643229327 133.54480576611186 -89.350199005299103 -142.52791643229324 133.54480576611189 -229.36001297835540 -1.3285479835924286e-05 -2.4777368885116131e-05 1.2102337135993708e-05 0.0000000000000000 1.1091553067665849e-07 1.7200431079444911e-08 9.0148373292464612e-05 0.0074455484974545729 7.0172177105868443e-10 9.4276692403243225e-10 9.5472765859726049e-10 0.0000000000000000 -87.333945182495100 -141.58874659118649 139.28801968872074 1877.7986991733408 0.0000000000000000 0.0000000000000000 0.0000000000000000 0.0000000000000000 3.2670722550717515 3.5498932568193036 1.2830777368546149 1.1322501552077033 1816.2929707675576 1826.7648743456157 1.1327349267721301 
-67.326317599694335 -164.90655585752916 133.54480576611186 -67.326317599694406 -164.90655585752933 133.54480576611181 -189.83452609710787 -6.4943085204670161e-05 3.0679261673538695e-05 6.6221354916183711e-05 8.0570426605128980e-19 8.6454433084748317e-08 2.3483486488729000e-08 9.0148373292464598e-05 0.0055569221759586467 2.4417788173732991e-09 -1.1894426769430200e-10 -4.6259180781878344e-09 -7.9426332083004763e-20 -65.754724465942374 -163.62432261291517 139.28801968872077 2018.1238718776010 0.0000000000000000 0.0000000000000000 0.0000000000000000 0.0000000000000000 3.2627896235803213 3.5408248751846818 1.2782851274990104 1.1324896635235813 1746.8444390661771 1727.6603779133889 1.1306125985644495 
-89.350199005299032 -164.90655585752916 116.48265448771562 -89.350199005299103 -164.90655585752930 116.48265448771556 -301.10616431165869 -0.00014287759434322437 -6.6817476042116812e-05 2.0896618737478321e-05 0.0000000000000000 1.1091553067665848e-07 2.3483486488729000e-08 0.00011250020192932197 0.010670571976833135 4.7614386057843487e-09 3.6846752785250917e-09 5.0027326788314201e-09 0.0000000000000000 -87.333945182495114 -163.62432261291505 123.64986896362312 1549.0027140339625 0.0000000000000000 0.0000000000000000 0.0000000000000000 0.0000000000000000 3.2656662601558688 3.5466034868999694 1.2811880083380318 1.1316797969689509 1903.4788391972413 2000.4441102740677 1.1318924292358481 
-89.350199005299032 -142.52791643229327 116.48265448771562 -89.350199005299103 -142.52791643229321 116.48265448771556 -190.08896053177958 -0.00011729992310989754 -5.7453775880707169e-05 0.00015434179279149102 0.0000000000000000 1.1091553067665849e-07 1.7200431079444911e-08 0.00011250020192932197 0.0050814358436981006 5.4178318858648030e-09 6.6196202533550620e-10 -2.8823299338400381e-09 0.0000000000000000 -87.333945182495086 -141.58874659118649 123.64986896362313 1389.1126189879024 0.0000000000000000 0.0000000000000000 0.0000000000000000 0.0000000000000000 3.2639839241438473 3.5437277037110699 1.2799941913587098 1.1322063556434443 1660.3028699509541 1987.6593523374463 1.1313777658246726 
-46.345628352439270 -110.78628305277668 34.868415207504349 -46.345628352439277 -110.78628305277668 34.868415207504356 -1019.1001150390493 0.00025367940158427000 7.9450907168164135e-05 -0.00031470059575981068 -993.63678016209144 6.3151970347563591e-08 8.2886455476938181e-09 0.00021941681878701047 0.029916482979984636 -4.9145233808050794e-09 9.7124158956428333e-10 9.0698057915742395e-09 0.031946706478292348 -45.197633928000002 -110.33371083599998 48.847122559999995 1069.0094105005942 0.0000000000000000 0.0000000000000000 0.0000000000000000 0.0000000000000000 3.2634451589016131 3.5421004017191327 1.2789039763513519 1.1308780311059297 3289.2092682110447 3292.9087969653306 1.1308863705949785 
-58.517374228048446 -99.104752478767210 32.008654199519377 -58.517374228048467 -99.104752478767239 32.008654199519363 -996.23488950279614 3.5675247514803351e-05 9.4302199883587918e-05 -0.00022247713701071631 -833.72409177765678 7.6670673282430699e-08 5.0089197234370886e-09 0.00022316317450332693 0.031269053878935908 1.0722707950152783e-10 -1.4162332303006972e-09 5.8957865904400372e-09 0.032544819352412609 -57.123633070400032 -98.831257531200038 46.226036100800002 1475.5774262919704 0.0000000000000000 0.0000000000000000 0.0000000000000000 0.0000000000000000 3.2634288261497297 3.5420668520839809 1.2788867868985720 1.1308780311059297 3114.0322318429671 3117.9789190766705 1.1308787708316681 
-61.595530042781895 -105.96566621802819 44.048349652589920 -61.595530042781895 -105.96566621802820 44.048349652589913 -669.99975417328631 -1.8278547721550447e-05 0.00041036066937339875 -0.00040351119391374585 -87.915054330218851 8.0089466530930396e-08 6.9352015241719300e-09 0.00020739088381915849 0.020743359075196702 2.1177285003600021e-09 -1.2423019451033893e-08 1.7259605016068903e-08 0.020310528304809720 -60.139641125599979 -105.58699381199996 57.260903223199996 1724.6135661994952 0.0000000000000000 0.0000000000000000 0.0000000000000000 0.0000000000000000 3.2633874657773818 3.5419847042085375 1.2788462180993174 1.1308780311059297 2612.2620620725597 2586.0748441089841 1.1308607953482159 
-20.022554180052872 -88.222730472817943 44.526422859306763 -20.022554180052875 -88.222730472817958 44.526422859306763 -825.82113286771084 2.5396509859643021e-06 -0.00016626658760992224 -0.00046530076437124954 -828.32890483447102 3.3915927816208224e-08 1.9536787743135164e-09 0.00020676459641677522 0.025025295496916823 -1.1671809217156630e-09 2.5759015037312552e-09 7.6914765919384307e-09 0.026383331394366796 -19.406020858399991 -88.116056368799974 57.699076624800000 1439.6451283969650 0.0000000000000000 0.0000000000000000 0.0000000000000000 0.0000000000000000 3.2633877435484240 3.5419805388728274 1.2788415266292721 1.1308780311059297 2896.9594819775234 2907.7757191718342 1.1308587694749126 
-60.204337736996543 -180.10352718974090 67.499884260247867 -60.204337736996543 -180.10352718974084 67.499884260247867 -1662.2224303190976 -2.0981315036218566e-05 -0.00011803314030795258 -0.00023320665876354503 -2117.6132393747985 7.8544318743434260e-08 2.7750172604257273e-08 0.00017666880930633511 0.038142175188372346 -1.7407969095054179e-11 1.7196585098125336e-09 8.8708946420318990e-09 0.054654986254102395 -58.776536899199989 -178.58832514800000 78.755181813599989 1584.4809985467919 0.0000000000000000 0.0000000000000000 0.0000000000000000 0.0000000000000000 3.2657254927605788 3.5468934018142311 1.2814224159241845 1.1308780311059303 4619.4189999800892 4624.0675216129457 1.1320027054698174 
-76.214420017286102 -186.55694589811645 60.375905181506738 -76.214420017286102 -186.55694589811648 60.375905181506717 -1499.3274414694513 0.00064349966695009624 -0.00058286500945145384 -1.7904942707115319e-05 -1407.5175124885393 9.6326119886080974e-08 2.9562046810482908e-08 0.00018600139328839305 0.036736614313512682 -1.6407049632881248e-08 1.3166497280880292e-08 4.3084493791365773e-10 0.034109404597436069 -74.463376691600018 -184.94281327599995 72.225767276240006 1182.3928641350060 0.0000000000000000 0.0000000000000000 0.0000000000000000 0.0000000000000000 3.2642526714444595 3.5437402652887648 1.2797358732792412 1.1308780311059305 3962.0261332219093 3968.5156057055597 1.1312542902049503 
-71.390420402065843 -213.61743388582036 76.050610521414129 -71.390420402065843 -213.61743388582042 76.050610521414129 -1692.2663758425347 2.6423833583886458e-05 5.4933983758749014e-05 -0.00026649132528669010 -1786.3023450794731 9.0968283489312198e-08 3.7159580967838217e-08 0.00016546715220400188 0.038672396274220130 -1.2572283729269006e-09 -4.2276229859234788e-10 3.6479572971828390e-09 0.040789775597605875 -69.736773305200003 -211.58846536000007 86.592267764799999 1391.6778601551057 0.0000000000000000 0.0000000000000000 0.0000000000000000 0.0000000000000000 3.2627441123962275 3.5406887958215947 1.2781943738134396 1.1308780311059305 4627.1350641450035 4600.3147658168737 1.1305728778969260 
-88.819380733891364 -209.23571358459463 80.104834994265502 -88.819380733891393 -209.23571358459461 80.104834994265502 -1324.3492500967702 0.00059759491205333640 -0.00032381469126559328 -0.00010771845241702045 -1439.6322615587392 1.1032597205251626e-07 3.5929342834251088e-08 0.00016015602060903689 0.032346238558463004 -1.4520453143112335e-08 8.1356902202864570e-09 1.4221378920464921e-09 0.035464131807664175 -86.813844096400004 -207.27391660800001 90.308128229600001 1955.0875990986240 0.0000000000000000 0.0000000000000000 0.0000000000000000 0.0000000000000000 3.2651205619822030 3.5456271617085946 1.2807598936164299 1.1308780311059297 3818.6397012160646 3829.5161552164795 1.1317096962742652 
-76.122806561761010 -214.62983205828172 91.396160103599755 -76.122806561761010 -214.62983205828172 91.396160103599755 -1420.9635287965461 -0.00030178771089421017 0.00011182892695893223 0.00041811357693878300 -1724.2025860658221 9.6224362838848192e-08 3.7443820710691966e-08 0.00014536411308441188 0.032138686304745777 4.2020943385378266e-09 -2.0496059114604888e-09 -7.6465756834460889e-10 0.036605728434886860 -74.373612905599998 -212.58534351999998 100.65708370800000 988.41240310934302 0.0000000000000000 0.0000000000000000 0.0000000000000000 0.0000000000000000 3.2635590376437356 3.5424115872543260 1.2791047867183889 1.1308780311059292 4554.9104457047115 4478.1664252483806 1.1309774866874112 
-67.326317599694335 -187.28519528276502 99.420503209319335 -67.326317599694406 -187.28519528276502 99.420503209319236 -820.84135053753687 3.7265140166238720e-05 -0.00042746207807819173 -0.00039691303776673282 1.1140303651022828e-18 8.6454433084748317e-08 2.9766513476303651e-08 0.00013485203056617934 0.021848248156773858 -1.3971232497903176e-09 1.3309336327353215e-08 5.2920576339925221e-09 -1.6280208319484416e-19 -65.754724465942374 -185.65989863464350 108.01171823852535 1808.0980320372519 0.0000000000000000 0.0000000000000000 0.0000000000000000 0.0000000000000000 3.2616080368752600 3.5380073800129810 1.2766333046445832 1.1303524817960582 2815.8253022161957 2830.1153367693337 1.1298755211064015 
-85.397812842758483 -210.33934198785133 100.52593669172299 -85.397812842758498 -210.33934198785136 100.52593669172300 -955.35782390400527 0.00081104815743143766 -0.00054157198224440790 -0.0010305901807077490 -949.29588637391055 1.0652575901937132e-07 3.6239212741762117e-08 0.00013340388612093082 0.024019000455325144 -2.0481858143123507e-08 1.0501597975121464e-08 9.2538810260680823e-09 0.022175483936514365 -83.461357431600007 -208.36062644399999 109.02489266960001 1287.0831768928649 0.0000000000000000 0.0000000000000000 0.0000000000000000 0.0000000000000000 3.2646411721890911 3.5446756588156410 1.2802889266505144 1.1308780311059290 3241.4099146945196 3283.6318375693886 1.1314986807160323 
-42.631854349090858 -130.80574194274044 53.315536673458041 -42.631854349090865 -130.80574194274047 53.315536673458041 -569.90026444776356 0.00017702368598670055 -5.7131488329906296e-05 -0.00015932143662447274 -651.82046785185037 5.9027225801644434e-08 1.3909314811044737e-08 0.00019525064588421515 0.017122461741654063 -5.4294857540424949e-09 3.1041144608367610e-09 5.8344271994991537e-09 0.021673146282205590 -41.558840772800004 -130.04627243999997 65.754654395919971 2180.9238908936368 0.0000000000000000 0.0000000000000000 0.0000000000000000 0.0000000000000000 3.2636936895430657 3.5426083986587735 1.2791632529278325 1.1308780311059297 2499.2730599643937 2508.4257312108962 1.1310008687344146 
-23.474322144235970 -135.27306804046989 42.570062928141120 -23.474322144235970 -135.27306804046989 42.570062928141120 -916.30515821843017 1.4246621670532924e-05 4.3648452062636314e-05 -2.9060854147315830e-05 -975.69752350485669 3.7749677744836063e-08 1.5163567956832935e-08 0.00020932747499813328 0.026843958073077982 -8.2009237922271395e-10 -1.0722646431614286e-09 1.1060068221876633e-09 0.026400279056952809 -22.788097858800000 -134.44511465599999 55.905993737599999 935.86986824075086 0.0000000000000000 0.0000000000000000 0.0000000000000000 0.0000000000000000 3.2632501319498814 3.5416914615263986 1.2786897438728728 1.1308780311059285 3058.8366734585788 3054.9752312441169 1.1307918999972599 
-11.469619543140283 -103.95021215379286 49.337520744559882 -11.469619543140283 -103.95021215379285 49.337520744559896 -844.06095816314314 1.8239169597896036e-05 -0.00017803297192811287 -0.00029679206725884393 -761.51134355671991 2.4416505761681861e-08 6.3693421648025614e-09 0.00020046194244827120 0.024797102948269398 -1.2205995496008903e-09 3.5868401402715268e-09 5.4007671569516971e-09 0.022386820633660990 -11.025769398400001 -103.60243655599999 62.108642139439993 1284.9349949311236 0.0000000000000000 0.0000000000000000 0.0000000000000000 0.0000000000000000 3.2633390292038551 3.5418821256913020 1.2787919145170716 1.1308780311059290 3015.8281649555302 3014.1259983879563 1.1308368575049648 
-29.808362939239714 -141.69064289641173 58.025195907690367 -29.808362939239714 -141.69064289641173 58.025195907690367 -657.90189929447081 7.8019408654009516e-05 8.0744808499475280e-05 -0.00024897303666440192 -622.52602878067228 4.4784655123253352e-08 1.6965352900299990e-08 0.00018908087898950043 0.019193733232431190 -2.0119521520578324e-09 9.6404782776476682e-11 7.0950830428484082e-09 0.026051919903892547 -28.994254794799993 -140.76430841599998 70.071247290159988 2176.9829965296321 0.0000000000000000 0.0000000000000000 0.0000000000000000 0.0000000000000000 3.2639280612686781 3.5431266240377606 1.2794486378265919 1.1308780311059294 2629.8521137082093 2638.7909138311788 1.1311263495472048 
-105.75383480588357 -195.80990294271368 84.176982851448017 -105.75383480588357 -195.80990294271371 84.176982851448003 -799.52585856211579 3.2404594463201473e-05 -0.00011830891789380450 -0.00031441664303254597 -1068.9324598544656 1.2913443350748288e-07 3.2159919838292694e-08 0.00015482140895528571 0.023362836668380429 -1.4596989686813585e-09 2.5174940195761558e-09 6.5951997862227002e-09 0.025647028290587074 -103.40639267600000 -194.05392295999994 94.040416199999996 2662.2783756828549 0.0000000000000000 0.0000000000000000 0.0000000000000000 0.0000000000000000 3.2634099396324108 3.5420826915591874 1.2789236894998568 1.1308780311059292 2872.8846487405622 2847.5921614321601 1.1308958988261948 
-84.425321705086731 -163.56301923252738 66.459790122148974 -84.425321705086787 -163.56301923252747 66.459790122148945 -934.77979860038977 -0.00010710097488668050 -8.5914691305786610e-06 -0.00012618533647286995 -1241.5505595996585 1.0544565656744885e-07 2.3106271340722632e-08 0.00017803135764893341 0.026699554098412660 3.6012768844500215e-09 1.3261303340874690e-09 6.5329532412889234e-09 0.035519929880020201 -82.508500824799995 -162.30138233600007 77.801893530400037 2229.3857910936085 0.0000000000000000 0.0000000000000000 0.0000000000000000 0.0000000000000000 3.2651328042891423 3.5456358221962501 1.2807552039673025 1.1308780311059297 3083.9343807692071 3054.7772453927337 1.1317066657706460 
-28.784532297645406 -125.74393686336640 120.74819230731468 -28.784532297645427 -125.74393686336636 120.74819230731465 -60.330026868988391 1.7079497375019795e-05 -2.3050584302936890e-05 6.3989440997308969e-05 -2.7189595881990436e-19 4.3647526953849436e-08 1.2488154288448071e-08 0.00010691224477099581 0.0021070778663883141 1.4966822511740099e-09 1.3441451881208010e-09 -1.6322119632545586e-09 2.0093526672762305e-20 -27.991095225219734 -125.06206457489009 127.55940664489751 1124.7619503421174 0.0000000000000000 0.0000000000000000 0.0000000000000000 0.0000000000000000 3.2606527258284363 3.5358103229438922 1.2753870830418874 1.1310546916034359 1349.0826266042561 1357.2105881889120 1.1293364762161076 