# For a description of the Tecplot format see the Tecplot User's guide.
#
Variables=x,y,z,s_u,s_v,s_w,s_p,mono_f_vel_u,mono_f_vel_v,mono_f_vel_w,const,u_nu,v_nu,w_nu,p_nu,x_nu,y_nu,z_nu,const,u_ref,v_ref,w_ref,vol_ref,x_ref,y_ref,z_ref,const,I1,I2,I3,J,p1,p2,p3
Zone f=fepoint, n=1339, e=6475, et=brick, c=black
-58.7697 -70.4613 176.196 -58.769680092554680 -70.461326026930593 176.19554689226109 -40.035354486694573 -1.9465306520455388e-09 -1.2523943405172747e-07 3.7832471370988737e-07 -40.250978801312840 1.7666280244243993e-10 -9.1532337265221047e-12 1.9430022257793667e-08 2.8595068269984887e-05 1.9030477249797765e-13 -2.7583727312830748e-13 4.2867405816285890e-13 2.8712783914064428e-05 -58.668039002000000 -70.473359259200009 176.35421013599998 215.13583165143561 0.0000000000000000 0.0000000000000000 0.0000000000000000 0.0000000000000000 3.0176713614129294 3.0354158938927580 1.0177446206555365 1.0087030182250809 138.02270340734350 138.02270340494661 1.0088333847446764 
-65.074012922731015 -76.409279536756799 183.91264505764369 -65.074012922731043 -76.409279536756799 183.91264505764369 -41.527181526957655 -7.6709771917582246e-07 -1.4272022430608835e-06 1.5321402495423515e-06 -41.509601993980581 1.9273788814944124e-10 -4.1157494079513413e-12 1.3699011036649722e-08 2.8187501081723264e-05 4.5031946853666438e-13 -5.0969668672142346e-13 4.7689927681810815e-13 2.8393997453547788e-05 -64.963123215600007 -76.414687385200040 184.02450960799996 253.42820447565578 0.0000000000000000 0.0000000000000000 0.0000000000000000 0.0000000000000000 3.0180110764165260 3.0360992160551143 1.0180882365585122 1.0087030182250822 141.90304378560879 141.90304378678823 1.0090037786812116 
-69.781388155101936 -71.573351682533030 177.08339319853360 -69.781388155101936 -71.573351682533030 177.08339319853357 -40.420037316495460 -6.7635286589341426e-07 -2.6073301612937805e-07 1.6564911478101628e-07 -41.039136032558751 2.0474037049078575e-10 -8.2106682564031530e-12 1.8770680343394019e-08 2.8800759834830941e-05 1.5330127064458067e-13 -1.9818225129062802e-13 3.8667058397941884e-13 2.8879982704440113e-05 -69.663592608799988 -71.584146237200002 177.23667228800005 218.29881668600640 0.0000000000000000 0.0000000000000000 0.0000000000000000 0.0000000000000000 3.0182015225234262 3.0364811810847239 1.0182797573085638 1.0087030182250805 140.69563555603597 140.69563556720919 1.0090987691735231 
-57.264438144538040 -87.733980980973129 171.48360090603393 -57.264438144538012 -87.733980980973186 171.48360090603387 -38.322110942494952 -9.6317590219467590e-07 1.3445392901733294e-06 3.6209042317058479e-06 0.0000000000000000 1.7282671821439166e-10 5.4847376640410062e-12 2.2929307563757106e-08 2.8697638193230311e-05 3.0853094180272110e-13 -1.0423110804120528e-13 7.9943885839984930e-13 0.0000000000000000 -57.165005282198301 -87.726774323660578 171.67083873969227 259.76550921814646 0.0000000000000000 0.0000000000000000 0.0000000000000000 0.0000000000000000 3.0160526905299712 3.0321600196630567 1.0161073729817898 1.0081774008601661 128.97200554009112 128.97200553912202 1.0080213581047206 
-89.044399605896629 -83.380279478023525 116.59280892140502 -89.044399605896629 -83.380279478023553 116.59280892140499 -35.317022828118709 -3.7021834408809308e-07 2.3438331375524431e-06 -1.0879026285185678e-06 0.0000000000000000 2.5385826080137619e-10 1.7973261767778581e-12 6.3693254226393492e-08 3.5731107547826175e-05 -1.3228317291332512e-12 9.5004528274603382e-14 9.6864644692045473e-13 0.0000000000000000 -88.898344731952406 -83.377922378373768 117.11292023788836 283.91631954144174 0.0000000000000000 0.0000000000000000 0.0000000000000000 0.0000000000000000 3.0161178290143891 3.0322818818820134 1.0161640803202951 1.0082063093141036 123.70787491108419 123.70787500485402 1.0080495596709076 
-97.754525638325788 -66.885684518455378 107.64578275932182 -97.754525638325774 -66.885684518455378 107.64578275932180 -39.258758839939077 -3.6514356370031034e-08 7.3413786517749323e-07 -4.6280233311193491e-06 -39.944669190121900 2.7606483071762611e-10 -1.2193981935304521e-11 7.0337647928298010e-08 3.7038494233078515e-05 -4.3546733458873683e-14 -3.5202621229281423e-13 2.5263682991077929e-12 3.6930705126014002e-05 -97.595692787999965 -66.901700632800015 108.22015140479995 322.25788568967050 0.0000000000000000 0.0000000000000000 0.0000000000000000 0.0000000000000000 3.0179701833753545 3.0360195682200426 1.0180494859493794 1.0087030182250794 137.69209900587907 137.69209899431371 1.0089845655957230 
-79.795018640242475 -67.516136311632778 108.04351814543988 -79.795018640242475 -67.516136311632792 108.04351814543993 -38.496037359785142 -1.2791058253745643e-06 1.1066835612612833e-06 -2.1442496786460567e-06 0.0000000000000000 2.3026778400714321e-10 -1.1659395671159702e-11 7.0042281308246856e-08 3.6908226614717930e-05 3.8856152716547320e-13 5.2414659439876557e-13 2.4074398349096039e-12 0.0000000000000000 -79.662532843379708 -67.531450170133141 108.61547480962874 295.38956150422752 0.0000000000000000 0.0000000000000000 0.0000000000000000 0.0000000000000000 3.0166869705780210 3.0334352114165939 1.0167483035324867 1.0083685633271593 131.64827850074607 131.64827849945547 1.0083392433199483 
-94.632039966444793 -81.840145103443987 108.05441765000411 -94.632039966444779 -81.840145103443987 108.05441765000417 -38.107430183816632 -1.7973524471125744e-06 1.4436738027174105e-06 -3.4432742460232173e-06 0.0000000000000000 2.6810078462835563e-10 4.9484027986324008e-13 7.0034192223289438e-08 3.7736776491892763e-05 9.4455324806299939e-13 1.1691653525487231e-12 4.0303086696149266e-12 0.0000000000000000 -94.477787882002133 -81.839503548705352 108.62630821647583 293.80807890400462 0.0000000000000000 0.0000000000000000 0.0000000000000000 0.0000000000000000 3.0166484055599154 3.0333542074661470 1.0167058563038085 1.0083498086089493 130.14300401617027 130.14300397291706 1.0083181783179815 
-47.391195740754242 -126.00908517945548 138.29898661669446 -47.391195740754249 -126.00908517945538 138.29898661669446 -22.248320466138686 -6.5093974665751987e-08 1.1220160857340566e-06 3.7674281432551863e-06 0.0000000000000000 1.2984640467632103e-08 -7.4031171651480100e-09 8.0818564866309482e-08 3.2503371980538240e-05 1.6889331956561046e-13 -1.8725953497297743e-13 3.3472207277279770e-12 0.0000000000000000 -47.292355390977058 -125.96433165720771 138.67232254046354 244.31333887135355 0.0000000000000000 0.0000000000000000 0.0000000000000000 0.0000000000000000 3.0193130099412464 3.0387282894180361 1.0194154420409769 1.0097254089587160 113.35309433164322 113.35310246970643 1.0096610410977893 
-34.267990590689863 -140.50094768176157 138.83367723952134 -34.267990590689841 -140.50094768176166 138.83367723952139 -22.353200827155963 1.8442205845312834e-06 -4.9307506402676694e-07 1.9179548371858539e-06 0.0000000000000000 5.2451742351650833e-09 -1.9558066461237517e-09 5.8033973232137635e-08 2.9509373514063938e-05 -8.7263947113459641e-13 -8.6304730121685892e-13 4.3554615529654172e-12 0.0000000000000000 -34.196989160350306 -140.43319657724166 139.21506628885933 210.16870282748488 0.0000000000000000 0.0000000000000000 0.0000000000000000 0.0000000000000000 3.0189340862630258 3.0379625214784998 1.0190285690115859 1.0094835270374132 112.29347416863415 112.29349113900801 1.0094694969526226 
-31.009145590957043 -127.69285257461944 142.36482044702547 -31.009145590957026 -127.69285257461939 142.36482044702549 -24.124955894930572 1.2862976779600435e-06 5.9664716895976587e-07 3.5581542999702703e-06 0.0000000000000000 1.0587766080538685e-10 3.9358391545896148e-11 4.4554004041685857e-08 2.9477338404679119e-05 5.1522430931710792e-13 -5.8985851487270369e-13 4.5022654452911424e-12 0.0000000000000000 -30.948229910445860 -127.64113600963313 142.72864290474456 229.21992526850030 0.0000000000000000 0.0000000000000000 0.0000000000000000 0.0000000000000000 3.0183623104682233 3.0368096961680204 1.0184474985604599 1.0092496716516586 113.27459993975198 113.27459124680843 1.0091815523563850 
-48.505831327474510 -130.95605882350702 146.53276986402369 -48.505831327474510 -130.95605882350708 146.53276986402363 -23.135254774207230 1.1037011209814587e-06 3.3306048398420823e-06 -5.0331478777737589e-07 0.0000000000000000 1.2397948526367058e-08 -8.3513546645877019e-09 7.0986012748896201e-08 2.8744753145262469e-05 2.9960979568575309e-13 -2.6665481840029881e-12 4.5002217363249477e-12 0.0000000000000000 -48.406431667502837 -130.90513559487593 146.85896726379221 225.63426853136377 0.0000000000000000 0.0000000000000000 0.0000000000000000 0.0000000000000000 3.0194346462533854 3.0389706984092815 1.0195362070531468 1.0096638096759172 114.47640836949314 114.47641475639145 1.0097208464442995 
-53.103921752142746 -84.932386524995536 76.925180747921928 -53.103921752142710 -84.932386524995522 76.925180747921956 -37.660932421283484 -9.8321716708572596e-07 8.4381385283639808e-06 -1.7259876248966224e-05 0.0000000000000000 -6.0436410896136853e-10 1.1287991461623151e-08 1.0778875510268368e-07 4.9854333256198557e-05 2.4548927564173870e-12 3.9890513952683547e-11 7.7393286341147031e-12 0.0000000000000000 -53.009977022357148 -84.940192361847963 77.707205907375524 356.07450292316213 0.0000000000000000 0.0000000000000000 0.0000000000000000 0.0000000000000000 3.0170077937789110 3.0340782477681447 1.0170705079414004 1.0085325933005633 126.54662974355173 126.54662964542867 1.0084987442467428 
-40.387316761357020 -85.654193514427376 66.656799781624883 -40.387316761357020 -85.654193514427348 66.656799781624855 -48.162777395513395 -2.4635452529232032e-07 2.6044417109125623e-06 -9.0073077622456219e-06 0.0000000000000000 2.9424677410701577e-10 1.5211637044006524e-09 1.0284351288544742e-07 4.7072731133445432e-05 4.0518166994472326e-12 4.2240787159741961e-12 -8.3769689668241422e-12 0.0000000000000000 -40.313282635619565 -85.652866469445740 67.489144002613742 334.72004880612383 0.0000000000000000 0.0000000000000000 0.0000000000000000 0.0000000000000000 3.0163580621414936 3.0327808350491900 1.0164228448460593 1.0083623308852958 147.44239718653532 147.44239718634790 1.0081778671300041 
-43.005496594864184 -94.074729310604582 82.531329026105979 -43.005496594864198 -94.074729310604624 82.531329026105993 -33.140237029357181 8.7796081118443174e-06 2.5758359623743235e-06 -7.9711970487367030e-06 0.0000000000000000 2.4879940857219782e-09 3.8507971421223751e-09 1.0790020423324808e-07 4.7942007588666602e-05 1.9186585583396686e-11 7.3701320294234878e-12 3.0125772346139743e-11 0.0000000000000000 -42.930125987095458 -94.071309017270835 83.274511392489799 283.94561953274422 0.0000000000000000 0.0000000000000000 0.0000000000000000 0.0000000000000000 3.0174278037345719 3.0349255144719840 1.0174977851393867 1.0086086821188920 122.25301315317439 122.25301324293966 1.0087108260514981 
-45.027816734094969 -98.989461184483190 67.195891426452391 -45.027816734094969 -98.989461184483233 67.195891426452377 -42.160677032768469 5.4447277136741897e-06 4.5696586256916039e-06 -1.3281601949289087e-05 0.0000000000000000 1.4162624545344116e-10 1.5025952704306181e-11 1.0037725584055579e-07 4.8033905132200140e-05 -8.2271662933183624e-12 -1.4971979281166489e-12 -2.5979692215190823e-11 0.0000000000000000 -44.946335306532468 -98.969717126470769 68.015559797458934 339.42980011114588 0.0000000000000000 0.0000000000000000 0.0000000000000000 0.0000000000000000 3.0172219468359733 3.0345199200990289 1.0172980737143746 1.0085591310709456 138.06906863275302 138.06906862409949 1.0086117818616003 
-35.735269562406266 -100.85054899941569 74.577090161026490 -35.735269562406273 -100.85054899941571 74.577090161026490 -39.466015531359638 4.5807629935311788e-06 3.2922451719985570e-06 -7.1202804733519532e-06 0.0000000000000000 2.5276695887156559e-09 -8.0553165775588791e-10 1.0126518743110187e-07 4.8327046988644156e-05 1.2374425649546617e-11 -5.7609682260136222e-12 4.7050467015219882e-12 0.0000000000000000 -35.672109309640206 -100.83293553867907 75.360366609178811 338.44965823895870 0.0000000000000000 0.0000000000000000 0.0000000000000000 0.0000000000000000 3.0159868537735313 3.0320351399021197 1.0160483541399925 1.0083085240504686 130.66996022491000 130.66996022101191 1.0079921851171063 
-49.063194488945513 -112.02634254100087 64.547413459461339 -49.063194488945513 -112.02634254100086 64.547413459461353 -38.475687281379074 8.5621538469448056e-06 4.2646253828814163e-06 -8.3694851626221426e-06 -34.925149153281382 1.5191598673469644e-10 2.6070409719913812e-11 1.0234411340626082e-07 4.5059843180846009e-05 -7.2805306174906038e-12 9.7734909664190161e-12 -4.8411908226000053e-12 4.3814210540285995e-05 -48.975793059600008 -111.99207679200002 65.383142959360015 326.57209562220959 0.0000000000000000 0.0000000000000000 0.0000000000000000 0.0000000000000000 3.0174312098923437 3.0349306862530132 1.0174995498557524 1.0086584090365340 132.72058815059697 132.72058825297830 1.0087116418882114 
-25.292065436426789 -110.51445300639803 66.646657277577646 -25.292065436426800 -110.51445300639806 66.646657277577617 -44.869802082736278 1.6056177177140051e-06 2.1857698898312555e-06 -8.0767033856416207e-06 0.0000000000000000 9.1301528837295378e-11 2.4795152042678123e-11 1.0078513668076994e-07 4.5451068545254036e-05 1.0627910047368269e-12 -1.8884674618615762e-12 -8.6107335846983611e-13 0.0000000000000000 -25.239536857883341 -110.48187134057846 67.469656361758609 349.35568362690350 0.0000000000000000 0.0000000000000000 0.0000000000000000 0.0000000000000000 3.0168378324660137 3.0337429561027318 1.0169052013686579 1.0084790804679284 143.68871837343428 143.68871830769476 1.0084170960396153 
-44.156055279103299 -111.30206054088372 75.684209249154847 -44.156055279103292 -111.30206054088374 75.684209249154904 -33.578364109619727 4.6556485754859357e-06 -3.7627127492785785e-06 -4.7786852803021880e-06 0.0000000000000000 1.3940230220166328e-10 2.5467530861966736e-11 9.4073511203163220e-08 4.5757126628289386e-05 -8.0049997774943472e-13 -5.4186398440440992e-12 1.3227231456502238e-11 0.0000000000000000 -44.075852747763513 -111.26860156453857 76.452402029906395 268.59635586333832 0.0000000000000000 0.0000000000000000 0.0000000000000000 0.0000000000000000 3.0179610856205001 3.0360045828914326 1.0180436084855282 1.0085707607229191 126.53332320321758 126.53332282022572 1.0089814980435401 
-58.372055060572748 -106.63376172332848 104.74244590883380 -58.372055060572784 -106.63376172332848 104.74244590883380 -19.438544747977112 1.6346621646552119e-06 7.6847921887011812e-06 -6.8414668286881438e-07 0.0000000000000000 9.6762714848610089e-09 1.0463601781637704e-08 9.1363613099040739e-08 4.4991322163912989e-05 -3.9419670265084595e-12 -1.1486417303729747e-12 6.2615173972122633e-13 0.0000000000000000 -58.254647241440821 -106.62760994408018 105.33920711112118 241.62621693813244 0.0000000000000000 0.0000000000000000 0.0000000000000000 0.0000000000000000 3.0205780569612335 3.0412668453440266 1.0206889675439796 1.0101709350262140 111.75712847151851 111.75712762750925 1.0102915001714621 
-64.497277777807184 -90.076718034079008 96.028623749039880 -64.497277777807156 -90.076718034079008 96.028623749039923 -28.386197047053841 -3.4714854485697642e-06 2.5492822036821002e-06 5.0057456223260169e-06 0.0000000000000000 3.2164001397970673e-09 1.6662491316420953e-09 9.3682735187023866e-08 4.0251482945261688e-05 1.6756677728584157e-12 5.4455215129325939e-13 -1.2218109620309145e-11 0.0000000000000000 -64.370648572599308 -90.090304358695661 96.688480747766732 239.98138923263960 0.0000000000000000 0.0000000000000000 0.0000000000000000 0.0000000000000000 3.0185174741219938 3.0371136219103416 1.0185962224708700 1.0089002102949172 118.02680932406673 118.02680962705109 1.0092549445872705 
-76.061807637949073 -99.705303983196458 100.69838673323629 -76.061807637949130 -99.705303983196387 100.69838673323633 -26.345213911875049 -6.1227690988561610e-06 7.0238279265500016e-06 -1.5376152142998287e-06 0.0000000000000000 5.9267549770631497e-09 6.6445786253096288e-09 8.8996543815439938e-08 4.3207010799563231e-05 4.7401358923044218e-12 -3.8216976027269047e-12 2.3502038980064847e-12 0.0000000000000000 -75.913673002404863 -99.702254402691466 101.32606574872912 288.13617662859207 0.0000000000000000 0.0000000000000000 0.0000000000000000 0.0000000000000000 3.0191323270292814 3.0383541701274526 1.0192219583714175 1.0093009695519437 117.41069800868898 117.41069788847278 1.0095653922554109 
-55.275465634216886 -93.577057493555301 102.71287046036227 -55.275465634216893 -93.577057493555301 102.71287046036227 -26.619696739479611 -3.6620696181575746e-07 3.6990338247297697e-06 1.7948202471317958e-06 0.0000000000000000 6.0252576963407131e-09 4.2958835361772786e-09 9.4225245671168605e-08 4.1063794877749826e-05 2.5882762032154540e-12 1.6023832971558065e-12 1.4623587588804817e-12 0.0000000000000000 -55.164710769962618 -93.586508083202432 103.32606452766413 222.68531933077850 0.0000000000000000 0.0000000000000000 0.0000000000000000 0.0000000000000000 3.0187239078686812 3.0375244182179411 1.0188005894387198 1.0093009655186400 119.53583274741229 119.53583296515704 1.0093565716638400 
-45.845458751433391 -176.00133232635369 155.36416435965498 -45.845458751433391 -176.00133232635378 155.36416435965489 -24.046703928625099 -2.9821926442773588e-06 -3.8445887225390848e-06 7.2581736146232591e-06 0.0000000000000000 1.4370731687973759e-10 8.0303250160618234e-11 3.4900199397114313e-08 2.4695159815792947e-05 3.4798542840375739e-13 4.2237559603049923e-13 -1.4115814439071174e-12 0.0000000000000000 -45.762777822239421 -175.89580528354742 155.64915507299250 248.91339099022119 0.0000000000000000 0.0000000000000000 0.0000000000000000 0.0000000000000000 3.0187365687781988 3.0375530838603271 1.0188166102489016 1.0091401321783831 111.04161829243083 111.04127959876189 1.0093643986206724 
-51.526510628362324 -185.67911847713214 167.94501710072760 -51.526510628362310 -185.67911847713211 167.94501710072763 -26.138146849328589 1.6641732146367417e-07 -2.9002594704664343e-07 -1.3371281283393168e-07 -26.943405998908400 1.5819492243940303e-10 8.8498638972644996e-11 2.5557193472636186e-08 2.3582655940862250e-05 -1.8130361962716288e-13 8.4722473379066799e-13 8.5434177370919646e-13 2.3784655216038684e-05 -51.435495451599998 -185.56281141599996 168.15371392000000 294.81703600272857 0.0000000000000000 0.0000000000000000 0.0000000000000000 0.0000000000000000 3.0172551871454587 3.0345790776118453 1.0173239695806735 1.0087027696520088 111.77609323477047 111.77637097271493 1.0086248233986226 
-42.751874058385376 -171.28143183742455 166.05018728540648 -42.751874058385383 -171.28143183742455 166.05018728540651 -25.680635815571886 4.2626866752592911e-07 -4.5909248829629947e-07 2.1132439322220426e-06 0.0000000000000000 7.6963997320320989e-10 -4.6304152889740431e-09 2.9719790478331801e-08 2.4016545942142786e-05 -3.8721024632973300e-13 -1.3316009198344578e-12 1.2322907336296777e-12 0.0000000000000000 -42.672974891599750 -171.18173466392949 166.26923354793541 271.88244999766295 0.0000000000000000 0.0000000000000000 0.0000000000000000 0.0000000000000000 3.0174043888114479 3.0348798687383867 1.0174755646433484 1.0087740517301662 111.01158019537355 111.01165283516788 1.0086999468361419 
-59.485426029144698 -178.12527628621001 157.47844696417852 -59.485426029144712 -178.12527628620998 157.47844696417857 -26.998245573314605 -2.0362112970737748e-06 -6.3647246269480664e-07 -9.2141106337592067e-08 0.0000000000000000 1.7849089567478768e-10 8.2109055665746666e-11 3.3330041837587032e-08 2.4948786043712181e-05 5.1979594303379906e-13 -3.3036350947842840e-13 1.3304709856347631e-12 0.0000000000000000 -59.382734921100123 -178.01738339707751 157.75061606229067 243.94852352315442 0.0000000000000000 0.0000000000000000 0.0000000000000000 0.0000000000000000 3.0173034541997916 3.0346741745673667 1.0173707936973810 1.0087586560369819 113.12626738349402 113.12538715094345 1.0086480341985686 
-30.722451647605034 -102.74156488821133 94.664973595220260 -30.722451647605027 -102.74156488821137 94.664973595220275 -23.811073978937159 2.6570020633201332e-06 4.7854304959411986e-06 -1.2237598362101343e-05 0.0000000000000000 -2.2900179135952896e-09 5.1789116711813314e-09 9.1231081335751228e-08 4.7011321940239991e-05 -8.9462828620862834e-12 2.4451789670024890e-11 -5.1704676188874884e-12 0.0000000000000000 -30.660097366607719 -102.72526557899965 95.328291536857705 204.58703120518373 0.0000000000000000 0.0000000000000000 0.0000000000000000 0.0000000000000000 3.0187558502034322 3.0375888391272223 1.0188330623139477 1.0092505948096184 112.16318527651794 112.16318568349351 1.0093725466780004 
-18.847295486808061 -110.93900570341403 92.688965580277809 -18.847295486808051 -110.93900570341398 92.688965580277866 -29.618180919660620 4.3814422912330148e-06 6.3862972186391446e-07 -1.0381728279944231e-05 0.0000000000000000 7.4865662280654277e-11 2.5156293714800881e-11 8.1445152178005755e-08 4.5702538989638481e-05 1.4998735106211244e-11 4.4560679937289807e-13 -7.1008720002996318e-12 0.0000000000000000 -18.804221549666405 -110.90595113131390 93.354036648627854 267.24800799435923 0.0000000000000000 0.0000000000000000 0.0000000000000000 0.0000000000000000 3.0173687906893041 3.0348036847917217 1.0174349643722065 1.0087567764835155 119.86171424389487 119.86171466692755 1.0086799075264492 
-33.877866875711170 -104.73252234727900 84.277630623363692 -33.877866875711192 -104.73252234727899 84.277630623363663 -31.643043597160709 4.1046877381360022e-06 -1.6720607048217161e-07 -8.7908583094456599e-06 0.0000000000000000 -3.3817885170587639e-09 1.9373365947508835e-09 9.6422628843307369e-08 4.4478152525177394e-05 -5.7672948215085277e-12 7.3744193533455671e-13 -3.7694358665752117e-12 0.0000000000000000 -33.815892125380543 -104.71065599625929 85.007910193808286 270.69679205096202 0.0000000000000000 0.0000000000000000 0.0000000000000000 0.0000000000000000 3.0165837772062516 3.0332347991581652 1.0166510999841265 1.0085297379451699 119.19082426750163 119.19082455755550 1.0082909772273749 
-18.964429497993152 -100.40099750197621 94.745464128144420 -18.964429497993144 -100.40099750197622 94.745464128144448 -27.203352282200708 1.4513078050367822e-06 -4.4962568896955221e-08 -3.0511264797380633e-06 0.0000000000000000 7.5164454521603487e-11 1.6222578835822791e-11 7.9917917172878106e-08 4.2490511986575939e-05 6.3020460083069867e-12 5.6052559646068468e-12 1.1191486413658855e-12 0.0000000000000000 -18.921183722278450 -100.37968114352928 95.398064000337470 185.31956687594098 0.0000000000000000 0.0000000000000000 0.0000000000000000 0.0000000000000000 3.0176682225995162 3.0354023634933558 1.0177342083201224 1.0087850714144808 115.99934937395307 115.99934913364379 1.0088282911740190 
-31.183632322338052 -118.01620657581049 173.04169325223043 -31.183632322338063 -118.01620657581044 173.04169325223040 -30.834549032045064 4.4646127644864575e-06 4.3561382000783219e-06 2.7265000546643119e-06 0.0000000000000000 3.6798937510658517e-09 -1.3350546295051901e-09 2.2709045138933771e-08 2.8491316525476218e-05 8.9383652844271225e-13 3.0446558752302337e-13 -1.6471952739894969e-12 0.0000000000000000 -31.124431206993112 -117.97934695114738 173.21200361760444 258.17126679857051 0.0000000000000000 0.0000000000000000 0.0000000000000000 0.0000000000000000 3.0175011933914764 3.0350704901574952 1.0175693665437333 1.0088115877778514 120.58764942197271 120.58764955986861 1.0087464540750224 
-30.702726941192910 -133.18986700097892 164.58287399006809 -30.702726941192935 -133.18986700097901 164.58287399006807 -26.882322962890612 4.1539088339535646e-06 3.4222157453917471e-09 5.1585687579901058e-07 0.0000000000000000 4.4987148087896116e-09 -2.1890162387003551e-09 3.0091378388573264e-08 2.5876751586877242e-05 8.2878228779033112e-14 -1.5033265262443844e-12 8.9040854302567969e-13 0.0000000000000000 -30.642131568542830 -133.13454878399213 164.80820313575899 262.24283076768535 0.0000000000000000 0.0000000000000000 0.0000000000000000 0.0000000000000000 3.0179884042478546 3.0360544248897234 1.0180661169031111 1.0090579508925996 115.77060984316940 115.77060818433122 1.0089925830373654 
-42.758150685281478 -120.13863298921696 163.48339081930052 -42.758150685281485 -120.13863298921703 163.48339081930047 -24.527723266280415 6.8378357521756510e-06 4.3307397915839698e-06 2.7051064794496272e-06 0.0000000000000000 7.7286678127237328e-09 -4.8088014696787292e-09 3.7742944922696631e-08 2.7775707414403427e-05 -4.6913194754343742e-13 -1.4431048581424721e-12 -8.5484216124831496e-12 0.0000000000000000 -42.676694985445003 -120.10595080876966 163.70375490782192 268.28772502602959 0.0000000000000000 0.0000000000000000 0.0000000000000000 0.0000000000000000 3.0198462190140081 3.0397922743296970 1.0199461987335889 1.0096092853999328 115.50536983166707 115.50536928190603 1.0099238639138264 
-23.797659575512899 -114.27073321772396 161.56538678795718 -23.797659575512888 -114.27073321772389 161.56538678795724 -30.498003326591249 2.1709093434541705e-06 1.6276935051987537e-06 2.7878144975532232e-06 0.0000000000000000 8.7489321343170445e-11 2.7974386695994724e-11 3.0294936781416482e-08 2.7286306762784821e-05 -3.5535457110004714e-13 -1.0542066765301394e-12 4.0965137891281957e-13 0.0000000000000000 -23.747323328369049 -114.23396745764113 161.81277151251504 321.01516800445251 0.0000000000000000 0.0000000000000000 0.0000000000000000 0.0000000000000000 3.0172034341352814 3.0344740798794976 1.0172707167089394 1.0087358006169984 119.81752881998349 119.81752899716719 1.0085984579188689 
-6.4883910987266464 -105.01400752205387 108.76391147849694 -6.4883910987266482 -105.01400752205383 108.76391147849698 -19.526303236087596 1.6397020310213441e-07 6.8744392834595052e-08 -5.8107724463855140e-06 -17.134786043562119 4.3353947168367497e-11 2.0127316480156310e-11 6.9507292366211017e-08 3.2246108064005914e-05 -4.7187788957092885e-13 2.1124165526304730e-13 8.1271499500031630e-12 2.9585513377531467e-05 -6.4634479885999987 -104.98755276399999 109.33149947120000 327.67017865987640 0.0000000000000000 0.0000000000000000 0.0000000000000000 0.0000000000000000 3.0174186479739471 3.0349088197248122 1.0174902561101415 1.0087933766852120 98.827371834021051 98.827372062226431 1.0087072565697033 
-11.839631950534301 -97.134558434408660 100.82193290914097 -11.839631950534299 -97.134558434408646 100.82193290914097 -25.317150181500732 -6.7455884752376417e-07 -7.4748142255724330e-08 -6.4404225800256163e-06 -24.272900661416738 5.6998218644910281e-11 1.3452461367080559e-11 7.5405305777209719e-08 3.8282180101612670e-05 1.0058497394187055e-12 -9.2750004271584598e-13 4.8871044316248913e-12 3.7977725643654735e-05 -11.806838433999999 -97.116880539599975 101.43768333439998 212.90238721710071 0.0000000000000000 0.0000000000000000 0.0000000000000000 0.0000000000000000 3.0172775122974502 3.0346229377591487 1.0173455036960937 1.0087030182250802 109.91440107621364 109.91440102710138 1.0086354835106470 
-15.888337710248733 -110.39254866909063 102.49180282275050 -15.888337710248726 -110.39254866909064 102.49180282275047 -22.828806680549082 2.8462418954527798e-06 -7.2996595135720091e-08 -1.2051473839408993e-05 0.0000000000000000 6.7321696828326338e-11 2.4690083311185166e-11 7.4165198427067480e-08 3.6859261382615348e-05 -3.1367356914072758e-12 1.2416560848694133e-12 1.1492186526944597e-11 0.0000000000000000 -15.849604639409371 -110.36010279166017 103.09742667861765 236.22178992679409 0.0000000000000000 0.0000000000000000 0.0000000000000000 0.0000000000000000 3.0172970707137812 3.0346648787101178 1.0173678904659755 1.0088005941983329 106.58118670994098 106.58118733803876 1.0086465835547214 
-23.799918215015897 -99.554586006659989 101.67124699581341 -23.799918215015897 -99.554586006659989 101.67124699581338 -23.130833282879181 3.1647197773348211e-06 5.4783147057326047e-06 -7.8671298067656758e-06 0.0000000000000000 8.7494178568903167e-11 1.5503417993834034e-11 7.4774563874058231e-08 3.8579699281618678e-05 5.2682169911213275e-12 -2.3919152505992231e-12 9.7296295639331039e-12 0.0000000000000000 -23.749578654390465 -99.534212460059550 102.28184693721489 211.57004919854941 0.0000000000000000 0.0000000000000000 0.0000000000000000 0.0000000000000000 3.0179012152427322 3.0358801834440698 1.0179790564640721 1.0089895201898269 108.57357546906407 108.57357517636184 1.0089494423747720 
-54.200022573797263 -108.38119324147613 113.30594605090802 -54.200022573797249 -108.38119324147607 113.30594605090802 -14.225942918497417 2.8481388020182445e-06 9.6134274916929077e-06 -6.6395838441118441e-06 0.0000000000000000 1.6995659184586729e-08 9.9576175918357119e-09 9.0503562052073548e-08 5.2580322287131689e-05 7.4250482311738167e-12 1.8765740955126244e-11 -2.9813578243910401e-11 0.0000000000000000 -54.087034329299712 -108.37170302860723 113.84396407125838 191.01171882188567 0.0000000000000000 0.0000000000000000 0.0000000000000000 0.0000000000000000 3.0221450855408851 3.0444171595651497 1.0222722923145289 1.0107878430130952 105.57336010194827 105.57335238960313 1.0110748380372170 
-41.782407481403283 -107.75998982514001 110.41809529721260 -41.782407481403283 -107.75998982514008 110.41809529721255 -16.952294467742554 -1.9903728260700983e-06 6.4009343907965900e-06 6.5144806700015924e-07 0.0000000000000000 1.4374826137239058e-08 6.3360486827658465e-10 8.9296331897551333e-08 3.6967850290833206e-05 9.6826351119147031e-12 -1.0854862765596065e-11 -8.9730929978657862e-12 0.0000000000000000 -41.690910404717421 -107.74885629568415 110.97670241767709 270.34727434602189 0.0000000000000000 0.0000000000000000 0.0000000000000000 0.0000000000000000 3.0206504906180576 3.0414013197708090 1.0207509633255583 1.0102589660558932 108.52246357482225 108.52246333972245 1.0103222202515427 