# For a description of the Tecplot format see the Tecplot User's guide.
#
Variables=x,y,z,s_u,s_v,s_w,s_p,mono_f_vel_u,mono_f_vel_v,mono_f_vel_w,const,u_nu,v_nu,w_nu,p_nu,x_nu,y_nu,z_nu,const,u_ref,v_ref,w_ref,vol_ref,x_ref,y_ref,z_ref,const,I1,I2,I3,J,p1,p2,p3
Zone f=fepoint, n=1339, e=6475, et=brick, c=black
-58.8193 -70.4555 176.118 -58.819308958695736 -70.455453583873009 176.11754099958600 -58.291512372054328 -1.0878805808550766e-08 -1.8500379018851236e-07 5.6275644892940968e-07 -58.615701573875597 4.0879599705334608e-10 -2.1182056109125821e-11 4.5096691936308275e-08 5.1780589944128524e-05 9.2913992658475557e-14 -1.8100201930999755e-13 1.8629091169891110e-13 5.1904826387122865e-05 -58.668039002000000 -70.473359259200009 176.35421013599998 215.13583165143561 0.0000000000000000 0.0000000000000000 0.0000000000000000 0.0000000000000000 3.0263762362056146 3.0529152614286543 1.0265393176024566 1.0129854998919077 203.20780146223549 203.20780146763130 1.0131829658827549 
-65.128157662831626 -76.406640405280257 183.85764747973198 -65.128157662831640 -76.406640405280285 183.85764747973192 -60.536682207472907 -1.1450798656847541e-06 -2.1471459370044866e-06 2.3123647816509678e-06 -60.514042115765989 4.4600015347562305e-10 -9.5166929892087637e-12 3.1795142740875797e-08 5.1735555812699920e-05 5.1154900163637086e-13 -1.9499843612028673e-13 -1.3070884558734459e-13 5.2070689361446190e-05 -64.963123215600007 -76.414687385200040 184.02450960799996 253.42820447565578 0.0000000000000000 0.0000000000000000 0.0000000000000000 0.0000000000000000 3.0268889836236292 3.0539495232323137 1.0270608613534908 1.0129854998919083 209.04967262025605 209.04967262323726 1.0134405512948634 
-69.838904848080432 -71.568083737379609 177.00803439506717 -69.838904848080446 -71.568083737379624 177.00803439506717 -58.874860624486054 -1.0237082417481528e-06 -3.9086664176141274e-07 2.4460589502857985e-07 -59.805895945322199 4.7377257672565065e-10 -1.9003271178874573e-11 4.3566358520763515e-08 5.1940596184228932e-05 3.0214576974236840e-13 -6.7513950630416302e-14 2.0830303207917883e-13 5.2092827724966878e-05 -69.663592608799988 -71.584146237200002 177.23667228800005 218.29881668600640 0.0000000000000000 0.0000000000000000 0.0000000000000000 0.0000000000000000 3.0271760053109382 3.0545259922349253 1.0273503148736796 1.0129854998919077 207.23498443197090 207.23498443842209 1.0135835504999517 
-57.312988786686340 -87.737497964918617 171.39154647670983 -57.312988786686390 -87.737497964918589 171.39154647670975 -55.717855683212534 -1.4590787966607798e-06 2.0319830922057137e-06 5.4382932516164734e-06 0.0000000000000000 3.9991868150401899e-10 1.2683493144649559e-11 5.3218414786115893e-08 5.1571559739384594e-05 4.2269069901114838e-13 -5.1456444375791933e-13 1.3375145611791353e-13 0.0000000000000000 -57.165005282198301 -87.726774323660578 171.67083873969227 259.76550921814646 0.0000000000000000 0.0000000000000000 0.0000000000000000 0.0000000000000000 3.0239321617969961 3.0479852511651297 1.0240532322488431 1.0121906736981121 189.60107076860302 189.60107073670474 1.0119547996437879 
-89.115714639498393 -83.381429786865283 116.33709911378560 -89.115714639498435 -83.381429786865283 116.33709911378554 -51.332063945472825 -5.9310169137300332e-07 3.5226593306768901e-06 -1.6340571472190527e-06 0.0000000000000000 5.8742680164591832e-10 4.1500414216244508e-12 1.4783066837331662e-07 5.6230026621885647e-05 -5.4357200342215092e-13 -7.4183729479051006e-13 1.0041781254915856e-12 0.0000000000000000 -88.898344731952406 -83.377922378373768 117.11292023788836 283.91631954144174 0.0000000000000000 0.0000000000000000 0.0000000000000000 0.0000000000000000 3.0240181347878705 3.0481379348901165 1.0241198872745274 1.0122258488956359 181.87690610961010 181.87690605622589 1.0119878941315610 
-97.832079846221490 -66.877868354237265 107.36339764063047 -97.832079846221504 -66.877868354237279 107.36339764063042 -57.243273963735604 -6.4703975524952147e-08 1.0809387266588006e-06 -6.9013214917976675e-06 -58.264024130307128 6.3882898970746272e-10 -2.8201385671167142e-11 1.6325216534163189e-07 5.7997935891652066e-05 -1.5152334390370439e-13 -3.2927838293761088e-13 2.3796093378099611e-12 5.7931435850967051e-05 -97.595692787999965 -66.901700632800015 108.22015140479995 322.25788568967050 0.0000000000000000 0.0000000000000000 0.0000000000000000 0.0000000000000000 3.0268305916642051 3.0538376495491275 1.0270073939013711 1.0129854998919070 202.93786936698527 202.93786938159158 1.0134141536822661 
-79.859708224368461 -67.508662861439035 107.76231886380285 -79.859708224368447 -67.508662861439021 107.76231886380282 -56.077706137655021 -1.9332291955257835e-06 1.6538927415260434e-06 -3.2114027782996743e-06 0.0000000000000000 5.3285223455823427e-10 -2.6962987398349017e-11 1.6256660928526401e-07 5.7740998691342568e-05 7.2148448289489261e-13 -3.4678752813136620e-15 2.2111702191489936e-12 0.0000000000000000 -79.662532843379708 -67.531450170133141 108.61547480962874 295.38956150422752 0.0000000000000000 0.0000000000000000 0.0000000000000000 0.0000000000000000 3.0248861745613866 3.0499082422505297 1.0250222742862991 1.0124768627880374 193.78353065616454 193.78353068792342 1.0124335251233763 
-94.707357498055359 -81.840458194190234 107.77325086493852 -94.707357498055387 -81.840458194190219 107.77325086493857 -55.526699351656632 -2.7125574397142766e-06 2.1496605761522407e-06 -5.1332336479776827e-06 0.0000000000000000 6.2039573478500653e-10 1.1307066394294905e-12 1.6254782275737512e-07 5.8266809635707511e-05 1.1617618021447217e-12 3.8223256973615045e-13 3.1769235618962860e-12 0.0000000000000000 -94.477787882002133 -81.839503548705352 108.62630821647583 293.80807890400462 0.0000000000000000 0.0000000000000000 0.0000000000000000 0.0000000000000000 3.0248275289723812 3.0497821458709220 1.0249547954054206 1.0124472944263370 191.59108761050723 191.59108756847729 1.0124001602686794 
-47.439945019170544 -126.03065518101006 138.11558295446298 -47.439945019170565 -126.03065518101002 138.11558295446309 -31.492127614276441 -1.3337870580833242e-07 1.7228622602306265e-06 5.6797439721941212e-06 0.0000000000000000 1.4841680282790749e-08 -7.3586567805696165e-09 1.2422973064797424e-07 5.0736330072964563e-05 8.3885624329729900e-14 -5.7284594994286498e-13 1.0776051132728126e-12 0.0000000000000000 -47.292355390977058 -125.96433165720771 138.67232254046354 244.31333887135355 0.0000000000000000 0.0000000000000000 0.0000000000000000 0.0000000000000000 3.0288689625100709 3.0579667461935101 1.0290983282366992 1.0145412017863260 166.08753783674481 166.08748830065267 1.0144448105281569 
-34.302847578371392 -140.53403023312003 138.64619424602475 -34.302847578371377 -140.53403023312009 138.64619424602472 -31.620632649932773 2.7831415427033107e-06 -7.4735051635881872e-07 2.8745779043270533e-06 0.0000000000000000 5.8764371339608872e-09 -3.0224586240540966e-11 1.1447833834043524e-07 4.9187359510087175e-05 -1.2652621926508980e-12 -1.1522683320516307e-13 1.9582139341987345e-12 0.0000000000000000 -34.196989160350306 -140.43319657724166 139.21506628885933 210.16870282748488 0.0000000000000000 0.0000000000000000 0.0000000000000000 0.0000000000000000 3.0282997349881904 3.0568103890415212 1.0285111009717243 1.0141754894150261 164.45684964095301 164.45739446032027 1.0141554726249682 
-31.038889232406419 -127.71809122839224 142.18594917904377 -31.038889232406412 -127.71809122839215 142.18594917904377 -34.288828033141840 1.9364792968514382e-06 9.1625249831700385e-07 5.3359936080103761e-06 0.0000000000000000 2.4500379502967467e-10 9.1051804984587648e-11 1.0340885503445918e-07 4.9462024717287375e-05 -1.9187851704793871e-13 -5.0766920130296228e-13 1.9194493572641134e-12 0.0000000000000000 -30.948229910445860 -127.64113600963313 142.72864290474456 229.21992526850030 0.0000000000000000 0.0000000000000000 0.0000000000000000 0.0000000000000000 3.0274360360303052 3.0550620820402230 1.0276264225496550 1.0138210887013819 165.92782465027986 165.92789532204827 1.0137189967046996 
-48.554845384244032 -130.98066067931111 146.37245977907270 -48.554845384244032 -130.98066067931120 146.37245977907276 -32.806859377782139 1.6447298194080733e-06 5.0432585258125052e-06 -7.9300362690792900e-07 0.0000000000000000 1.4466633933222476e-08 -7.4962834670265087e-09 1.0837566736815234e-07 4.8846050010083043e-05 -2.3351285483889280e-13 -2.8177089937032527e-12 2.7273675379940301e-12 0.0000000000000000 -48.406431667502837 -130.90513559487593 146.85896726379221 225.63426853136377 0.0000000000000000 0.0000000000000000 0.0000000000000000 0.0000000000000000 3.0290575294638824 3.0583419836693695 1.0292849728971829 1.0144495183738595 167.76069603578838 167.76064775090620 1.0145368062388977 
-53.149846638392603 -84.928364591606638 76.540277172068400 -53.149846638392575 -84.928364591606638 76.540277172068443 -54.851164081163560 -1.4894742081345486e-06 1.2649646575301070e-05 -2.6082856984371645e-05 0.0000000000000000 1.0956347818047072e-09 1.4586646239723359e-09 2.4055649146273543e-07 6.8724359612192226e-05 1.9783885758911328e-12 2.7145329006365558e-11 6.7289859368775632e-12 0.0000000000000000 -53.009977022357148 -84.940192361847963 77.707205907375524 356.07450292316213 0.0000000000000000 0.0000000000000000 0.0000000000000000 0.0000000000000000 3.0253607675702110 3.0508603291901251 1.0254997376589767 1.0127219752194234 186.12927942347355 186.12927976152434 1.0126687185500103 
-40.423490257420504 -85.654788729455689 66.247441440185455 -40.423490257420532 -85.654788729455689 66.247441440185426 -70.597439787818132 -3.9825160774597198e-07 3.9145722205847070e-06 -1.3498223211259741e-05 0.0000000000000000 1.0034112213303391e-09 -1.1186783533318738e-09 2.4140923039826536e-07 6.7880918568698909e-05 3.1052970973600967e-12 2.2211510467353305e-12 -5.3466109933916288e-12 0.0000000000000000 -40.313282635619565 -85.652866469445740 67.489144002613742 334.72004880612383 0.0000000000000000 0.0000000000000000 0.0000000000000000 0.0000000000000000 3.0243887847506405 3.0489212699209109 1.0245327228535899 1.0124698836315142 217.50946798269982 217.50946796087641 1.0121917770448476 
-43.042297884851273 -94.076112349638450 82.165572949227609 -43.042297884851251 -94.076112349638450 82.165572949227624 -48.034152382282400 1.3198367940714648e-05 3.8974301828546645e-06 -1.2055247922309327e-05 0.0000000000000000 9.6347018419483033e-10 -3.9504874484648914e-09 2.3178582467498727e-07 6.5980492870760239e-05 1.2283085649582774e-11 3.3507063718759455e-12 2.3252487678319110e-11 0.0000000000000000 -42.930125987095458 -94.071309017270835 83.274511392489799 283.94561953274422 0.0000000000000000 0.0000000000000000 0.0000000000000000 0.0000000000000000 3.0259886727204348 3.0521323821860928 1.0261439539666208 1.0128370714373027 179.65842656841929 179.65842615199503 1.0129873491801336 
-45.067602128362331 -98.999096655137080 66.792906075395280 -45.067602128362317 -98.999096655137109 66.792906075395251 -61.640426070668006 8.0179026549613049e-06 6.8891793103993427e-06 -1.9847091544075629e-05 0.0000000000000000 3.2771560465327809e-10 3.4763913969726445e-11 2.3297343854089547e-07 6.7889881700444399e-05 -6.2988727033117086e-12 -3.7430986517129320e-12 -1.7483386095055606e-11 0.0000000000000000 -44.946335306532468 -98.969717126470769 68.015559797458934 339.42980011114588 0.0000000000000000 0.0000000000000000 0.0000000000000000 0.0000000000000000 3.0256797983383250 3.0515285771469260 1.0258491116668902 1.0127640716155297 203.58337703955263 203.58337719257904 1.0128417049534013 
-35.766074830309300 -100.85902798381559 74.191836837344681 -35.766074830309314 -100.85902798381557 74.191836837344681 -57.513497961149078 6.8288021664769975e-06 4.9699692252584716e-06 -1.0714102146492268e-05 0.0000000000000000 3.8588498271187511e-10 -3.4557886671330451e-09 2.3145732441957951e-07 6.6873669485146149e-05 7.5517199973543340e-12 -5.4022847122659561e-12 4.3072531557360565e-12 0.0000000000000000 -35.672109309640206 -100.83293553867907 75.360366609178811 338.44965823895870 0.0000000000000000 0.0000000000000000 0.0000000000000000 0.0000000000000000 3.0238267070648797 3.0477897263210325 1.0239632437307085 1.0123874628407765 192.26257985057248 192.26258014531015 1.0119105663898471 
-49.105870475732495 -112.04306486924384 64.136531744589405 -49.105870475732488 -112.04306486924384 64.136531744589419 -56.084541698370835 1.2719749876483031e-05 6.4855968626546955e-06 -1.2603482545054387e-05 -50.827795149348397 3.5152922239767298e-10 6.0320859418538930e-11 2.3753847511187587e-07 6.4706748160444743e-05 -6.1710259319805892e-12 5.9122229602158245e-12 -2.9902226928675703e-13 6.3838026092903115e-05 -48.975793059600008 -111.99207679200002 65.383142959360015 326.57209562220959 0.0000000000000000 0.0000000000000000 0.0000000000000000 0.0000000000000000 3.0260177183523100 3.0521872187620049 1.0261697435405670 1.0129167778111505 195.52357629266697 195.52357614279043 1.0129999457142238 
-25.317713860493136 -110.53035347045974 66.242034400094752 -25.317713860493118 -110.53035347045979 66.242034400094767 -65.581119158564647 2.3996165144245243e-06 3.3234938550748547e-06 -1.2134846189595257e-05 0.0000000000000000 2.1126771165835836e-10 5.7365057148928158e-11 2.3392012216127961e-07 6.5418306567613786e-05 2.1445695570027546e-13 -2.4414466107296294e-12 4.7421556793019781e-13 0.0000000000000000 -25.239536857883341 -110.48187134057846 67.469656361758609 349.35568362690350 0.0000000000000000 0.0000000000000000 0.0000000000000000 0.0000000000000000 3.0251167181635776 3.0503829741257573 1.0252665132157586 1.0126472354747040 211.75366500896058 211.75366494737386 1.0125542662000508 
-44.195216219529215 -111.31838914893787 75.306531582941389 -44.195216219529222 -111.31838914893794 75.306531582941446 -48.675693962547435 6.9597052361651066e-06 -5.5845732772000728e-06 -7.2003366841317306e-06 0.0000000000000000 3.2257378712596818e-10 5.8910182287874591e-11 2.1834258689956701e-07 6.4020848500153995e-05 -2.2376409508941547e-12 -2.8585995293990500e-12 9.0545375832334861e-12 0.0000000000000000 -44.075852747763513 -111.26860156453857 76.452402029906395 268.59635586333832 0.0000000000000000 0.0000000000000000 0.0000000000000000 0.0000000000000000 3.0268050615997830 3.0537935756196943 1.0269888832445340 1.0127806736898572 186.08360744126915 186.08360390475022 1.0134046587589121 
-58.429907972495478 -106.63608757486807 104.44883467827160 -58.429907972495521 -106.63608757486813 104.44883467827154 -27.325584183206452 2.4689764824447940e-06 1.1672293716830721e-05 -1.0125527954511605e-06 0.0000000000000000 1.4205087407987104e-08 -6.2029727432364756e-09 1.8771053861768189e-07 5.8755803971289766e-05 -2.4099345024932946e-12 -3.4685131048020774e-12 1.8160650208542024e-12 0.0000000000000000 -58.254647241440821 -106.62760994408018 105.33920711112118 241.62621693813244 0.0000000000000000 0.0000000000000000 0.0000000000000000 0.0000000000000000 3.0307764909340400 3.0618007436367560 1.0310248525283046 1.0152103889915010 163.75866024489451 163.75866297412318 1.0153938801188707 
-64.559538933480397 -90.069495547554695 95.703845970269725 -64.559538933480383 -90.069495547554666 95.703845970269697 -40.862855649967152 -5.2556442985214221e-06 3.9218388735611570e-06 7.5590951258839680e-06 0.0000000000000000 1.1216358333290849e-08 -1.2660607716433138e-08 2.0550869293901989e-07 5.8723890185268062e-05 3.3641842390737583e-12 -9.0738361294344624e-13 -7.1614826667775838e-12 0.0000000000000000 -64.370648572599308 -90.090304358695661 96.688480747766732 239.98138923263960 0.0000000000000000 0.0000000000000000 0.0000000000000000 0.0000000000000000 3.0276477900743690 3.0554704992847572 1.0278229538749113 1.0132777181837938 173.26197141888221 173.26197149962533 1.0138152681352148 
-76.134727438998027 -99.706324958111239 100.38950669982630 -76.134727438998027 -99.706324958111196 100.38950669982626 -37.783655852095293 -9.2993636659003012e-06 1.0654263367863408e-05 -2.3002978032144484e-06 0.0000000000000000 1.5753427377151643e-08 -6.7266455005634762e-09 1.9343229070550867e-07 5.9743651291308022e-05 5.2711039095438579e-12 -4.8743677926114761e-12 2.7371163654575260e-12 0.0000000000000000 -75.913673002404863 -99.702254402691466 101.32606574872912 288.13617662859207 0.0000000000000000 0.0000000000000000 0.0000000000000000 0.0000000000000000 3.0285749698687980 3.0573493477505029 1.0287747597179611 1.0138851955220209 172.32864594671454 172.32864365435066 1.0142857068346993 
-55.329966104120921 -93.571781754885748 102.41112415689228 -55.329966104120935 -93.571781754885720 102.41112415689227 -38.186248700321350 -5.6610955796289891e-07 5.5973080299207053e-06 2.6678947287542687e-06 0.0000000000000000 1.0954333132705081e-08 -1.1014779369441465e-08 1.9422758079279655e-07 5.8200462745281843e-05 1.6415823108040397e-12 -1.2443906981217462e-13 7.7781841027433405e-13 0.0000000000000000 -55.164710769962618 -93.586508083202432 103.32606452766413 222.68531933077850 0.0000000000000000 0.0000000000000000 0.0000000000000000 0.0000000000000000 3.0279627355521508 3.0560957472849521 1.0281332720435612 1.0138856110237982 175.51997102044245 175.51996826705221 1.0139691824908175 
-45.885829833099216 -176.05283150263821 155.22405027605149 -45.885829833099230 -176.05283150263821 155.22405027605149 -34.139219071030389 -4.5202822621487711e-06 -5.8796426226232208e-06 1.1001736772836346e-05 0.0000000000000000 3.3254514419933656e-10 1.8577311911016639e-10 8.1002584639833231e-08 4.6606299680332227e-05 9.9134337048585691e-13 1.9103692789516389e-12 -1.6551462302240292e-12 0.0000000000000000 -45.762777822239421 -175.89580528354742 155.64915507299250 248.91339099022119 0.0000000000000000 0.0000000000000000 0.0000000000000000 0.0000000000000000 3.0280079845616164 3.0561943476266769 1.0281866797218695 1.0136534438948905 162.48851078335201 162.48847861130858 1.0139952645576031 
-51.570951119896726 -185.73587850456292 167.84241248164767 -51.570951119896712 -185.73587850456286 167.84241248164767 -37.312484832742236 2.3991753931050943e-07 -4.3099522662985960e-07 -1.9339395199997840e-07 -38.526679928645414 3.6606322140197989e-10 2.0476842443883922e-10 5.9317669443004213e-08 4.6240234227265314e-05 -1.4193160946136220e-13 5.9050728048622959e-13 6.0804282105899593e-13 4.6505569596218237e-05 -51.435495451599998 -185.56281141599996 168.15371392000000 294.81703600272857 0.0000000000000000 0.0000000000000000 0.0000000000000000 0.0000000000000000 3.0257444833135518 3.0516416450885226 1.0258974236489016 1.0129857156782645 163.59571379204047 163.59573988246567 1.0128660204712190 
-42.790432592189013 -171.33004376682550 165.94251336939766 -42.790432592189035 -171.33004376682544 165.94251336939763 -36.613765689607050 6.3340082198990110e-07 -6.9143469465216214e-07 3.2167090432256664e-06 0.0000000000000000 1.1093101871859024e-09 -3.1464750010390287e-09 6.3493274905221066e-08 4.6425821261142849e-05 -4.5969675029760073e-13 -7.2594284538722970e-13 3.7492170902318380e-13 0.0000000000000000 -42.672974891599750 -171.18173466392949 166.26923354793541 271.88244999766295 0.0000000000000000 0.0000000000000000 0.0000000000000000 0.0000000000000000 3.0259767198355920 3.0521116083749060 1.0261351695152927 1.0130963100002235 162.45322853817336 162.45324696424407 1.0129833224597062 
-59.535567593222844 -178.17793003987842 157.34463655568985 -59.535567593222829 -178.17793003987842 157.34463655568979 -38.622880842265353 -3.1186201175928978e-06 -9.6963402555822528e-07 -1.4791194674160267e-07 0.0000000000000000 4.1302450348723596e-10 1.8994084083345797e-10 7.7358320194065300e-08 4.7243850136859362e-05 1.1444513870048725e-12 1.1766854033974710e-13 7.4743494731695174e-13 0.0000000000000000 -59.382734921100123 -178.01738339707751 157.75061606229067 243.94852352315442 0.0000000000000000 0.0000000000000000 0.0000000000000000 0.0000000000000000 3.0258259662876550 3.0518014360403076 1.0259757121446176 1.0130723106027260 165.68955247532327 165.68957361546049 1.0129046641056796 
-30.752993373020164 -102.74926946851130 94.338618685284203 -30.752993373020178 -102.74926946851127 94.338618685284203 -33.897733988025571 4.0287107999070647e-06 7.2158465252368123e-06 -1.8458152747472591e-05 0.0000000000000000 -8.0670011323908882e-10 -8.9179938677826472e-10 2.0031239573146386e-07 6.1734044489786138e-05 -6.9798502084675552e-12 1.4096525631865706e-11 -3.3387543868194469e-13 0.0000000000000000 -30.660097366607719 -102.72526557899965 95.328291536857705 204.58703120518373 0.0000000000000000 0.0000000000000000 0.0000000000000000 0.0000000000000000 3.0280244764082398 3.0562207933636167 1.0281965585164381 1.0138160399464653 164.36986295308273 164.36986488091858 1.0140001354362471 
-18.868327440016216 -110.95513695461115 92.361987124798446 -18.868327440016223 -110.95513695461115 92.361987124798404 -42.611560079578773 6.5843645560013491e-06 9.8076800738679387e-07 -1.5623256185621585e-05 0.0000000000000000 1.7324453677192153e-10 5.8186705453877607e-11 1.8903241416623473e-07 6.2098922312811479e-05 8.3735902145321180e-12 -5.5995171125374395e-14 -3.0774301253225958e-12 0.0000000000000000 -18.804221549666405 -110.90595113131390 93.354036648627854 267.24800799435923 0.0000000000000000 0.0000000000000000 0.0000000000000000 0.0000000000000000 3.0259261698014925 3.0519992976887234 1.0260733601956742 1.0130685220395632 175.90053553707011 175.90051682677731 1.0129530099654360 
-33.908139603294316 -104.74302934270921 83.918299989531420 -33.908139603294323 -104.74302934270919 83.918299989531491 -45.710032466275756 6.1370583711220371e-06 -2.1491444135251780e-07 -1.3256624926020713e-05 0.0000000000000000 -3.7536932110743609e-09 -1.9077211627266093e-09 2.1974341063541372e-07 6.2161897312118912e-05 -4.9485817492227815e-12 3.7316205153282254e-13 -6.3545042889717101e-13 0.0000000000000000 -33.815892125380543 -104.71065599625929 85.007910193808286 270.69679205096202 0.0000000000000000 0.0000000000000000 0.0000000000000000 0.0000000000000000 3.0247259533308877 3.0496012654679148 1.0248755699295022 1.0127222365650992 174.94893175096414 174.94893357470485 1.0123609258484434 
-18.985545355786478 -100.41140028473414 94.424617066212974 -18.985545355786481 -100.41140028473411 94.424617066212946 -38.992363470605646 2.1616748378298268e-06 -4.5598880246688683e-08 -4.6099152426123622e-06 0.0000000000000000 1.7393286116940129e-10 3.7525371698876597e-11 1.8548774360915843e-07 5.9412629346206388e-05 3.6999575061580395e-12 3.7873375758918212e-12 1.5884932866492438e-12 0.0000000000000000 -18.921183722278450 -100.37968114352928 95.398064000337470 185.31956687594098 0.0000000000000000 0.0000000000000000 0.0000000000000000 0.0000000000000000 3.0263765693368629 3.0528995284516487 1.0265231814643809 1.0131101744411612 170.09465845502186 170.09466733933655 1.0131751575243597 
-31.212538047387973 -118.03407270002633 172.95810971022482 -31.212538047387969 -118.03407270002630 172.95810971022487 -44.404576996680660 6.7424686314469738e-06 6.5673419309860337e-06 4.1665641517241261e-06 0.0000000000000000 2.0235435544528929e-09 -2.9165370480114200e-09 4.6617659395828841e-08 5.0431048554859737e-05 -8.1394801804192345e-13 -9.2025610183400273e-13 -1.3972453937528704e-12 0.0000000000000000 -31.124431206993112 -117.97934695114738 173.21200361760444 258.17126679857051 0.0000000000000000 0.0000000000000000 0.0000000000000000 0.0000000000000000 3.0261299019721317 3.0524112890446577 1.0262816173641696 1.0131544338164589 176.94666282828862 176.94666270298615 1.0130556331601950 
-30.732353218219856 -133.21678390185025 164.47215216687204 -30.732353218219835 -133.21678390185025 164.47215216687198 -38.421767214934697 6.3234455450017735e-06 -1.1719797266563766e-08 7.6734340756074403e-07 0.0000000000000000 3.0813818888217469e-09 -2.4492078421896744e-09 6.3854502174900238e-08 4.8010515085160569e-05 -1.4167393691484964e-12 -9.8268069000198911e-13 2.7222356132314899e-13 0.0000000000000000 -30.642131568542830 -133.13454878399213 164.80820313575899 262.24283076768535 0.0000000000000000 0.0000000000000000 0.0000000000000000 0.0000000000000000 3.0268746253802745 3.0539223967103468 1.0270480917481886 1.0135313234799439 169.66763793879355 169.66763912777449 1.0134337160638784 
-42.798107478053879 -120.15420942416907 163.37527815806533 -42.798107478053900 -120.15420942416905 163.37527815806527 -34.859836029685745 1.0380956819032532e-05 6.6279255743722273e-06 4.1328314728293735e-06 0.0000000000000000 7.1994613152696402e-09 -8.6383735029308971e-09 6.3993497122627023e-08 4.8870820700865216e-05 -2.5048226845292335e-12 -2.4780430370504552e-12 -6.2929745781301530e-12 0.0000000000000000 -42.676694985445003 -120.10595080876966 163.70375490782192 268.28772502602959 0.0000000000000000 0.0000000000000000 0.0000000000000000 0.0000000000000000 3.0297029542814053 3.0596295145288597 1.0299270404581220 1.0143712907481466 169.25459993052067 169.25460059965133 1.0148532276197779 
-23.822237537613784 -114.28867559826817 161.44376147752862 -23.822237537613777 -114.28867559826814 161.44376147752874 -43.882960783272388 3.2858586661577954e-06 2.4639959329146407e-06 4.1916742298156983e-06 0.0000000000000000 2.0245351228798112e-10 6.4729721582779121e-11 7.0313892930329303e-08 4.9466174470533395e-05 -9.9663036955895798e-13 -1.1192531138391120e-12 -1.4763859670188988e-13 0.0000000000000000 -23.747323328369049 -114.23396745764113 161.81277151251504 321.01516800445251 0.0000000000000000 0.0000000000000000 0.0000000000000000 0.0000000000000000 3.0256784791794460 3.0515064114563621 1.0258281666540940 1.0130395306307884 175.75231872840695 175.75231922671807 1.0128319081658399 
-6.5005702111983998 -105.02691794020215 108.48486002965991 -6.5005702111983972 -105.02691794020213 108.48486002965996 -27.407333308943830 2.4445092209220462e-07 1.1435147826715300e-07 -8.7795765842890588e-06 -23.815287280933589 1.0032054353903419e-10 4.6570330924922126e-11 1.6132491365006274e-07 5.0956138700232883e-05 -2.4974642284501419e-13 -4.6095020854278768e-14 6.4678836103005297e-12 4.9036539275877239e-05 -6.4634479885999987 -104.98755276399999 109.33149947120000 327.67017865987640 0.0000000000000000 0.0000000000000000 0.0000000000000000 0.0000000000000000 3.0259933644144104 3.0521457971534907 1.0261527122982503 1.0131231603397541 144.20808236557420 144.20806349624718 1.0129920442427616 
-11.855644225033659 -97.143185578663619 100.51920267083513 -11.855644225033659 -97.143185578663619 100.51920267083514 -36.146952211024420 -1.0302552628916278e-06 -8.8078706752169409e-08 -9.6801933219584177e-06 -34.571830637405931 1.3189550840397857e-10 3.1127295185839898e-11 1.7501407234554733e-07 5.6219321474719639e-05 7.0918293488031465e-13 -7.1008918558140646e-13 3.9607141206047705e-12 5.5896629908086773e-05 -11.806838433999999 -97.116880539599975 101.43768333439998 212.90238721710071 0.0000000000000000 0.0000000000000000 0.0000000000000000 0.0000000000000000 3.0257799256851059 3.0517107568889941 1.0259310902177254 1.0129854998919070 160.91494647792862 160.91495002542516 1.0128826049155406 
-15.907250124287470 -110.40838286587152 102.19405125541176 -15.907250124287470 -110.40838286587150 102.19405125541176 -32.378580310761251 4.3134179277552031e-06 -9.0886821183472628e-08 -1.8120548089738409e-05 0.0000000000000000 1.5578319190190371e-10 5.7117699459041660e-11 1.7213579961428138e-07 5.4724094645816486e-05 -3.1611129353197390e-12 7.1715827568378590e-13 9.2274849549745873e-12 0.0000000000000000 -15.849604639409371 -110.36010279166017 103.09742667861765 236.22178992679409 0.0000000000000000 0.0000000000000000 0.0000000000000000 0.0000000000000000 3.0258116503394210 3.0517806199941031 1.0259692427893479 1.0131347880328379 155.87683956799344 155.87678995891517 1.0129014435738102 
-23.824497795009044 -99.564528679552311 101.37104896396916 -23.824497795009048 -99.564528679552311 101.37104896396916 -32.863874386243403 4.7747333929012746e-06 8.2910414507389601e-06 -1.1842913165845043e-05 0.0000000000000000 2.0246664761414124e-10 3.5861258407265950e-11 1.7355015491382630e-07 5.5783637872229704e-05 1.2840899005846010e-12 -3.8050837786569105e-12 7.4735929221019193e-12 0.0000000000000000 -23.749578654390465 -99.534212460059550 102.28184693721489 211.57004919854941 0.0000000000000000 0.0000000000000000 0.0000000000000000 0.0000000000000000 3.0267262872990561 3.0536257276061511 1.0268997322108764 1.0134210262796077 158.93574984060612 158.93577170281335 1.0133605229303317 
-54.255782351537448 -108.38515950178780 113.04134282517259 -54.255782351537420 -108.38515950178775 113.04134282517265 -19.434902554435688 4.2834006138941347e-06 1.4599069170586570e-05 -1.0066250392205994e-05 0.0000000000000000 1.9215425068134507e-08 -5.9653234306370499e-09 1.7238183998707051e-07 6.0889081671062558e-05 1.4040067965828032e-12 5.7474519588933593e-12 -1.4912302082517157e-11 0.0000000000000000 -54.087034329299712 -108.37170302860723 113.84396407125838 191.01171882188567 0.0000000000000000 0.0000000000000000 0.0000000000000000 0.0000000000000000 3.0331634755056380 3.0666118433997487 1.0334491016241074 1.0161503703715502 154.41331063091275 154.41327491906392 1.0165870257122445 
-41.827550669249618 -107.76482587082332 110.14335298779511 -41.827550669249611 -107.76482587082332 110.14335298779507 -23.539291146251458 -3.0334657144431026e-06 9.7369106530781611e-06 9.6990318494569315e-07 0.0000000000000000 1.6204750905429485e-08 -9.5498067876427149e-09 1.7619496948486817e-07 5.2892231941981600e-05 6.9172135673887754e-12 -9.8154544088920731e-12 -4.9548803091581360e-12 0.0000000000000000 -41.690910404717421 -107.74885629568415 110.97670241767709 270.34727434602189 0.0000000000000000 0.0000000000000000 0.0000000000000000 0.0000000000000000 3.0309019835376083 3.0620284043973904 1.0311268685431534 1.0153482421659894 158.86134867761396 158.86130785274108 1.0154442021529697 