# For a description of the Tecplot format see the Tecplot User's guide.
#
Variables=x,y,z,s_u,s_v,s_w,s_p,mono_f_vel_u,mono_f_vel_v,mono_f_vel_w,const,u_nu,v_nu,w_nu,p_nu,x_nu,y_nu,z_nu,const,u_ref,v_ref,w_ref,vol_ref,x_ref,y_ref,z_ref,const,I1,I2,I3,J,p1,p2,p3
Zone f=fepoint, n=1339, e=6475, et=brick, c=black
-59.9088 -70.3270 174.311 -59.908842042135355 -70.327041020243740 174.31140150007766 -196.79816434828433 6.2983319489328636e-07 2.6641632234101914e-07 1.5077370158425186e-06 -199.83094494453783 1.3909506907383571e-08 -5.4544879724005568e-10 6.6397815956520390e-06 0.0021806600225243865 -4.8859098374078558e-12 7.2548460474011214e-12 -2.4063658856612400e-11 0.0021865473818110976 -58.668039002000000 -70.473359259200009 176.35421013599998 215.13583165143561 0.0000000000000000 0.0000000000000000 0.0000000000000000 0.0000000000000000 3.2291490993350509 3.4700490464790623 1.2410729061247552 1.1127859774077924 1179.6987880121019 1179.6979394795965 1.1140402314685909 
-66.316830510327108 -76.348930584114711 182.58423986349894 -66.316830510327108 -76.348930584114697 182.58423986349894 -207.84847491674145 -1.2063311211558918e-05 -1.0847811163318787e-05 1.1355445651978113e-05 -208.71573679049322 1.5175174034043341e-08 -2.4512480933935876e-10 4.6813374421361686e-06 0.0022278422004506728 5.4010844080021632e-11 3.6165707638922719e-11 -7.1933406914193155e-11 0.0022524323850737558 -64.963123215600007 -76.414687385200040 184.02450960799996 253.42820447565578 0.0000000000000000 0.0000000000000000 0.0000000000000000 0.0000000000000000 3.2322273977706151 3.4766691691437597 1.2446277937589794 1.1127859774077928 1208.6820482151704 1208.6843453052538 1.1156440099427454 
-71.101604255155010 -71.452889714112359 175.26318529574081 -71.101604255155024 -71.452889714112374 175.26318529574084 -200.52764545569838 -6.8526418757570363e-06 -1.4884021095546784e-06 -2.7344279697580903e-07 -206.99356687363994 1.6120224516358306e-08 -4.8929904572503347e-10 6.4144640852248350e-06 0.0021877931384890717 3.5925646564001067e-11 2.0428285480341180e-11 -1.6354419454581657e-11 0.0022042709292179182 -69.663592608799988 -71.584146237200002 177.23667228800005 218.29881668600640 0.0000000000000000 0.0000000000000000 0.0000000000000000 0.0000000000000000 3.2337980537646991 3.4799058859939174 1.2462957430936206 1.1127859774077942 1201.3913170386843 1201.3932097548077 1.1163966715205846 
-58.378850954329927 -87.814403763792171 169.26012876959831 -58.378850954329906 -87.814403763792157 169.26012876959823 -179.18414686418680 -8.2769918527052043e-06 1.5476343844910927e-05 3.2704971700705512e-05 0.0000000000000000 1.3607308196883494e-08 3.2666447324913861e-10 7.8355786374828540e-06 0.0021374610466636220 3.6528983143884406e-11 -8.6741313742187718e-11 -7.3354737662644422e-11 0.0000000000000000 -57.165005282198301 -87.726774323660578 171.67083873969227 259.76550921814646 0.0000000000000000 0.0000000000000000 0.0000000000000000 0.0000000000000000 3.2149852445062814 3.4395671218775274 1.2246908941603420 1.1082318508777551 1100.8769546894225 1100.8779209659108 1.1066492964373986 
-90.681337521852655 -83.406583561178053 110.41642353256599 -90.681337521852640 -83.406583561178039 110.41642353256599 -148.85778180983399 4.8140714337787589e-06 2.5837400639966820e-05 -1.2778041103991198e-05 0.0000000000000000 1.9987492355655337e-08 1.0684542139927089e-10 2.1765756638814086e-05 0.0020638136908628780 5.6570800086276610e-12 -1.3922827046778262e-10 1.8391957898957012e-11 0.0000000000000000 -88.898344731952406 -83.377922378373768 117.11292023788836 283.91631954144174 0.0000000000000000 0.0000000000000000 0.0000000000000000 0.0000000000000000 3.2179467211101658 3.4450303971684559 1.2271824358785717 1.1091101148005789 1048.6966263093234 1048.6966285600092 1.1077797970425391 
-99.534675166899163 -66.706952489212171 100.82508496384813 -99.534675166899191 -66.706952489212185 100.82508496384811 -190.74149247194771 3.1629867880363652e-06 1.2695822914182802e-05 -5.8774888801843081e-05 -198.94673649625108 2.1736151573081841e-08 -7.2598527189882134e-10 2.4036331776500219e-05 0.0022037723024171236 -3.6367241496949474e-11 -2.9794526201922481e-11 1.2365059735030040e-10 0.0022006937388374119 -97.595692787999965 -66.901700632800015 108.22015140479995 322.25788568967050 0.0000000000000000 0.0000000000000000 0.0000000000000000 0.0000000000000000 3.2308349119510003 3.4739685184194156 1.2433216202115853 1.1127859774077944 1173.5621869518834 1173.5621854701533 1.1150538642449483 
-81.279878531279948 -67.345241115306294 101.25146292227915 -81.279878531279977 -67.345241115306251 101.25146292227917 -187.87592647866151 -1.1430899046376351e-05 1.4038691793825638e-05 -2.5055612568476978e-05 0.0000000000000000 1.8130577289499072e-08 -6.9415251324755900e-10 2.3935394532159652e-05 0.0021771235597294811 7.6930292651245487e-11 -5.9977078274850562e-11 7.5961200765639755e-11 0.0000000000000000 -79.662532843379708 -67.531450170133141 108.61547480962874 295.38956150422752 0.0000000000000000 0.0000000000000000 0.0000000000000000 0.0000000000000000 3.2207682789196546 3.4519548248871668 1.2313233755892588 1.1098589095560709 1134.6011532648929 1134.6011534058407 1.1096404223458232 
-96.360849685837479 -81.847304541609773 101.26314734530564 -96.360849685837422 -81.847304541609731 101.26314734530568 -177.03621399003711 -1.7474510236690646e-05 2.0329289949272035e-05 -4.3942579538800691e-05 0.0000000000000000 2.1109282127840245e-08 2.9083402353080604e-11 2.3932628458567254e-05 0.0021794954137251315 1.2982107901891013e-10 -7.3856372276061633e-11 1.0601874356478675e-10 0.0000000000000000 -94.477787882002133 -81.839503548705352 108.62630821647583 293.80807890400462 0.0000000000000000 0.0000000000000000 0.0000000000000000 0.0000000000000000 3.2214921268425902 3.4530648776598132 1.2317001199277693 1.1099328443241030 1106.1701752647014 1106.1701774096628 1.1098103728096060 
-48.425844234187331 -126.53996550321935 133.72574504222288 -48.425844234187316 -126.53996550321929 133.72574504222294 -61.623225244561176 7.2764376452231851e-06 5.7971970980888576e-06 1.6190667206371077e-05 0.0000000000000000 8.9770049846925033e-07 -3.1460740273335777e-07 1.5599971735880063e-05 0.0016366211039000724 -2.1670147869662517e-11 -3.8349374371936421e-11 -1.3139633505019062e-10 0.0000000000000000 -47.292355390977058 -125.96433165720771 138.67232254046354 244.31333887135355 0.0000000000000000 0.0000000000000000 0.0000000000000000 0.0000000000000000 3.2410656498971986 3.4964776567720866 1.2556603550210879 1.1210700919099257 987.50569501195423 987.50789001316389 1.1205618766496273 
-35.039667319211709 -141.24809986983101 134.25965042813135 -35.039667319211723 -141.24809986983107 134.25965042813138 -60.125523071663444 1.4800394848830368e-05 2.5548013724359962e-06 8.3672659428596154e-06 0.0000000000000000 3.5149666244492873e-07 1.0803418644824215e-07 1.5997413680641296e-05 0.0016540904993462607 -1.3014906054278898e-10 4.1188986167604374e-11 -4.5676851169610026e-11 0.0000000000000000 -34.196989160350306 -140.43319657724166 139.21506628885933 210.16870282748488 0.0000000000000000 0.0000000000000000 0.0000000000000000 0.0000000000000000 3.2386394913874028 3.4911717961682638 1.2527610200543722 1.1193463515201409 977.25999634951199 977.30181359713981 1.1192704755645548 
-31.691869723416470 -128.26998423131161 138.04438433888268 -31.691869723416485 -128.26998423131167 138.04438433888268 -75.543953998456999 1.1361834536965405e-05 3.8888557445727642e-06 2.3476681216123577e-05 0.0000000000000000 8.3362628189309618e-09 2.3442334740053639e-09 1.5225338927393753e-05 0.0016983480179530879 -7.8786809609103330e-11 -1.7551388468652489e-11 -7.1623897331109970e-11 0.0000000000000000 -30.948229910445860 -127.64113600963313 142.72864290474456 229.21992526850030 0.0000000000000000 0.0000000000000000 0.0000000000000000 0.0000000000000000 3.2326918454566846 3.4781467785970395 1.2456528820331692 1.1169468862822358 984.43722839740462 984.43787387257453 1.1160868279597620 
-49.557414915625458 -131.54526789806758 142.53761633599791 -49.557414915625479 -131.54526789806766 142.53761633599791 -59.639812493217313 1.4423016599957110e-05 3.2787186459979418e-05 -1.4944709873295625e-05 0.0000000000000000 8.1125840646854142e-07 -3.2156383489617993e-07 1.3688369014306760e-05 0.0016713306345981444 -6.5711584041385302e-11 -2.1048986038475079e-10 2.3374922376856750e-11 0.0000000000000000 -48.406431667502837 -130.90513559487593 146.85896726379221 225.63426853136377 0.0000000000000000 0.0000000000000000 0.0000000000000000 0.0000000000000000 3.2444808529469311 3.5035866135928395 1.2593564638099506 1.1216779795276144 987.13624331434789 987.13062628236389 1.1222105622726195 
-54.142681272198693 -84.869293669969537 67.713220084261479 -54.142681272198679 -84.869293669969522 67.713220084261522 -171.09042105511818 -7.4787371690184862e-06 0.00010889301071070285 -0.00015645415062701996 0.0000000000000000 -9.4306487192380390e-08 -3.1726645243583840e-07 3.3184249061861419e-05 0.0024812878945111401 7.4855257877180562e-11 3.8919525226762600e-10 4.8288221805877621e-10 0.0000000000000000 -53.009977022357148 -84.940192361847963 77.707205907375524 356.07450292316213 0.0000000000000000 0.0000000000000000 0.0000000000000000 0.0000000000000000 3.2291026106908354 3.4695828237704194 1.2406258075807708 1.1130300002348277 1078.3979597694370 1078.3979616580791 1.1137840676544828 
-41.209300565115790 -85.673626218014547 56.793857505976668 -41.209300565115790 -85.673626218014576 56.793857505976646 -286.35905457936497 8.5696523155029074e-06 2.8852061567911906e-05 -9.7423282474788615e-05 0.0000000000000000 -8.8036141869588935e-08 4.2566697516836746e-08 3.4477459043410890e-05 0.0026784517790225215 -1.7721523179098511e-11 -4.5708550308396720e-11 8.0264898038165677e-12 0.0000000000000000 -40.313282635619565 -85.652866469445740 67.489144002613742 334.72004880612383 0.0000000000000000 0.0000000000000000 0.0000000000000000 0.0000000000000000 3.2161566402551740 3.4430369588282881 1.2270293182046148 1.1095778448022100 1294.1682392097216 1294.1682402485392 1.1076988160816581 
-43.832440620959204 -94.164839304400374 73.776901087014323 -43.832440620959225 -94.164839304400346 73.776901087014281 -136.97823477339153 0.00010583251909296913 1.4907582654695672e-05 -6.0200803806276869e-05 0.0000000000000000 -2.0842384299325905e-07 -5.1160857998221781e-07 3.1758285705027558e-05 0.0022631597596370939 1.8539177958186584e-11 1.9136805299993061e-11 9.3169407972592352e-10 0.0000000000000000 -42.930125987095458 -94.071309017270835 83.274511392489799 283.94561953274422 0.0000000000000000 0.0000000000000000 0.0000000000000000 0.0000000000000000 3.2328059164390290 3.4778338202397330 1.2452047977778695 1.1134875910244348 1049.0310606897654 1049.0310497020246 1.1158767822781643 
-45.941035407469904 -99.209795247921988 57.462229439229503 -45.941035407469897 -99.209795247922060 57.462229439229525 -213.74409031979499 0.00010341536912922745 4.7713398395458633e-05 -0.00015430859296563948 0.0000000000000000 1.1150674300575147e-08 8.9496499100505389e-10 3.4301699901817528e-05 0.0025289621585133791 -5.6043412810775537e-10 -3.0797667184603708e-10 -3.5171020392375505e-10 0.0000000000000000 -44.946335306532468 -98.969717126470769 68.015559797458934 339.42980011114588 0.0000000000000000 0.0000000000000000 0.0000000000000000 0.0000000000000000 3.2281036211920759 3.4688625833618372 1.2409654484990467 1.1126657319825706 1167.3467812522792 1167.3467825670264 1.1139692996921822 
-36.435329697987626 -101.06963097847097 65.304436023735477 -36.435329697987633 -101.06963097847091 65.304436023735448 -207.47321729284207 6.5695993930532673e-05 2.9093855140600696e-05 -6.6106395567607323e-05 0.0000000000000000 -3.0587683649587505e-07 -2.1353210487406049e-07 3.2813472661728061e-05 0.0024283841423837996 1.7809422144510314e-11 -2.8968498310545401e-10 3.0390838855641918e-10 0.0000000000000000 -35.672109309640206 -100.83293553867907 75.360366609178811 338.44965823895870 0.0000000000000000 0.0000000000000000 0.0000000000000000 0.0000000000000000 3.2120461488481742 3.4342596008723185 1.2223529662965793 1.1092786294190387 1143.5010269690365 1143.5010087597539 1.1055956732139689 
-50.042762713824139 -112.40873159746512 54.623023605580080 -50.042762713824125 -112.40873159746509 54.623023605580094 -183.17287951377935 0.00012696056273857321 1.8360544293497087e-05 -8.6809965542140058e-05 -133.33285117767065 1.1960820250900284e-08 1.5532135577700501e-09 3.4973830294049435e-05 0.0023285918295681968 -5.4220237563626369e-10 2.2598132735713037e-10 3.4120967026598642e-10 0.0022661773886494536 -48.975793059600008 -111.99207679200002 65.383142959360015 326.57209562220959 0.0000000000000000 0.0000000000000000 0.0000000000000000 0.0000000000000000 3.2264330613499390 3.4639007684912664 1.2376146735797737 1.1127609550473123 1120.5522560460345 1120.5522650545006 1.1124633839152500 
-25.880789520512117 -110.87804851544207 56.873442664727364 -25.880789520512138 -110.87804851544207 56.873442664727406 -273.74660267564934 2.3154299024241507e-05 1.4622161524384183e-05 -7.7393087585705475e-05 0.0000000000000000 7.1884955488155117e-09 1.4768712919277507e-09 3.4441084475034245e-05 0.0025021210363407338 -9.2205866399991718e-11 -1.8907649590153643e-10 1.3996127291195524e-10 0.0000000000000000 -25.239536857883341 -110.48187134057846 67.469656361758609 349.35568362690350 0.0000000000000000 0.0000000000000000 0.0000000000000000 0.0000000000000000 3.2204246921985522 3.4518254324673863 1.2315568953144622 1.1105166564601157 1289.7752208228414 1289.7752084159390 1.1097501093480913 
-45.054940478620082 -111.67544640776086 66.561826181379303 -45.054940478620075 -111.67544640776080 66.561826181379288 -148.25816404001489 6.4299896668342294e-05 -5.9789867008617386e-05 -3.7532038119416199e-05 0.0000000000000000 1.0975657299683306e-08 1.5166332634208857e-09 3.2147535712567787e-05 0.0021861009725666109 -3.0894193538470899e-10 1.0462330501519352e-10 3.3917691426767293e-10 0.0000000000000000 -44.075852747763513 -111.26860156453857 76.452402029906395 268.59635586333832 0.0000000000000000 0.0000000000000000 0.0000000000000000 0.0000000000000000 3.2331401146513907 3.4794475975201400 1.2465217537402065 1.1130926648588819 1096.1493160769521 1096.1492938093970 1.1164852413815043 
-59.587919808721985 -106.82382704977438 97.673333635499858 -59.587919808722006 -106.82382704977441 97.673333635499901 -48.214922299261339 1.8572434266689450e-05 4.5126513207762672e-05 6.5999995677339025e-06 0.0000000000000000 1.0414262596043751e-06 -1.4202843998888491e-06 2.5440698017686492e-05 0.0015843759553416468 -1.1741879196761412e-10 -4.7858651744122039e-10 8.8245263856555067e-11 0.0000000000000000 -58.254647241440821 -106.62760994408018 105.33920711112118 241.62621693813244 0.0000000000000000 0.0000000000000000 0.0000000000000000 0.0000000000000000 3.2501895663340425 3.5157791759942816 1.2658697640509964 1.1240553781074776 980.73014772354861 980.72999286759762 1.1251057779105340 
-65.849184774349496 -90.016408197407216 88.253483793135416 -65.849184774349467 -90.016408197407202 88.253483793135445 -96.844965308236752 -2.7085855836771253e-05 2.6685673125529094e-06 5.1664490858126069e-05 0.0000000000000000 1.0075880455909662e-06 -1.4802721910752094e-06 2.8244635924881441e-05 0.0019500137773535342 2.1977361437765943e-10 -1.7437639590132672e-10 -2.0075774127433494e-10 0.0000000000000000 -64.370648572599308 -90.090304358695661 96.688480747766732 239.98138923263960 0.0000000000000000 0.0000000000000000 0.0000000000000000 0.0000000000000000 3.2407552014952814 3.4949181038613886 1.2543555620043809 1.1161144345399896 1015.4025626263442 1015.4025608889543 1.1199532713261318 
-77.627560357621192 -99.811949796913851 93.283746156289126 -77.627560357621221 -99.811949796913837 93.283746156289112 -84.780824175300168 -4.3022112259514018e-05 5.5139372914793556e-05 -1.3711794231263091e-05 0.0000000000000000 1.3305244367178394e-06 -1.0672539828037575e-06 2.6773921700989185e-05 0.0018723164578942110 4.1905864384412222e-10 -4.6635697743026636e-10 1.2213173707548538e-10 0.0000000000000000 -75.913673002404863 -99.702254402691466 101.32606574872912 288.13617662859207 0.0000000000000000 0.0000000000000000 0.0000000000000000 0.0000000000000000 3.2442157012801398 3.5027253890115881 1.2587488553064410 1.1190770449017924 1012.0321411983280 1012.0321789648478 1.1219556136887452 
-56.440489475530214 -93.584114702429787 95.466204678883713 -56.440489475530221 -93.584114702429801 95.466204678883685 -90.134439752155060 -1.6296521101842437e-07 2.9539040583530077e-05 2.3945534231432802e-05 0.0000000000000000 8.9145008910484263e-07 -1.4666853437823717e-06 2.6243428845227243e-05 0.0018536058421623333 5.8769796920884155e-11 -1.9744547792812769e-10 6.6810315248456904e-12 0.0000000000000000 -55.164710769962618 -93.586508083202432 103.32606452766413 222.68531933077850 0.0000000000000000 0.0000000000000000 0.0000000000000000 0.0000000000000000 3.2399641313619152 3.4927159240439827 1.2529364249273707 1.1186728803378285 1035.1728235646585 1035.1728598673833 1.1193471023630115 
-46.772121068609891 -177.17896268631316 151.97986484140094 -46.772121068609898 -177.17896268631313 151.97986484140083 -57.180338172174679 -2.7907954597988309e-05 -2.4467715217467121e-05 5.4353584433944198e-05 0.0000000000000000 1.1314824105435049e-08 4.7833748073600182e-09 1.1926367140091543e-05 0.0016927103100537026 1.4297582222947920e-10 2.0751826368502284e-10 -2.0869904736815329e-10 0.0000000000000000 -45.762777822239421 -175.89580528354742 155.64915507299250 248.91339099022119 0.0000000000000000 0.0000000000000000 0.0000000000000000 0.0000000000000000 3.2407953533178211 3.4942564237268532 1.2536475066783843 1.1176246692116671 949.67233522842787 949.67410776924976 1.1196548631994221 
-52.546580618129163 -186.97704858703003 165.46671688998305 -52.546580618129163 -186.97704858703000 165.46671688998302 -69.324689961621630 4.2854979724320043e-06 -5.7679350424384566e-06 -5.1161942322051459e-06 -77.224236739314023 1.2455355330454056e-08 5.2720079413148815e-09 8.7335999694460059e-06 0.0017412689054633397 -1.9213518889193163e-11 1.3521139559082883e-11 2.9529750536027239e-11 0.0017514942117219797 -51.435495451599998 -185.56281141599996 168.15371392000000 294.81703600272857 0.0000000000000000 0.0000000000000000 0.0000000000000000 0.0000000000000000 3.2253850967542443 3.4621095506339756 1.2368879641754202 1.1130438887720102 939.84451368367252 939.84328519156463 1.1121586331873419 
-43.632215835136904 -172.38918338891386 163.43576007968409 -43.632215835136904 -172.38918338891384 163.43576007968397 -65.987766664917615 5.7983092438943556e-06 -5.1933240070209482e-06 1.0800443292568932e-05 0.0000000000000000 4.6394992773374039e-08 -1.1837847665070709e-07 9.1952196569255840e-06 0.0017409667016689374 -3.7898748218920872e-11 -9.8115052234540254e-12 -3.9263785916875661e-11 0.0000000000000000 -42.672974891599750 -171.18173466392949 166.26923354793541 271.88244999766295 0.0000000000000000 0.0000000000000000 0.0000000000000000 0.0000000000000000 3.2282129413648311 3.4680965782492970 1.2400552354984908 1.1141975251921759 938.45480244508758 938.45406921048550 1.1135788599820815 
-60.636356250438311 -179.32930833796894 154.24640569224542 -60.636356250438283 -179.32930833796894 154.24640569224542 -77.906507750216107 -1.2808182224280031e-05 -5.5941821184596766e-06 -2.8548266116854697e-06 0.0000000000000000 1.4053200408925550e-08 4.8905997029891068e-09 1.1389804772221625e-05 0.0017758681998216270 9.2109828196563055e-11 3.7717724267663547e-11 -6.8241080180319438e-12 0.0000000000000000 -59.382734921100123 -178.01738339707751 157.75061606229067 243.94852352315442 0.0000000000000000 0.0000000000000000 0.0000000000000000 0.0000000000000000 3.2275997202782589 3.4664368370979770 1.2389930659185309 1.1139921257258933 957.15726690901397 957.15811995916386 1.1131031345585181 
-31.394483773719266 -102.97116716436500 86.831734034113836 -31.394483773719259 -102.97116716436496 86.831734034113865 -82.584651931945345 2.5359290245052888e-05 4.8166034984909154e-05 -0.00010145038308946587 0.0000000000000000 -1.3413820310211378e-08 -3.3892009675404858e-07 2.8199414663848704e-05 0.0018803630343293574 -4.6701274653002828e-10 1.8458952964530266e-10 2.7146818384630910e-10 0.0000000000000000 -30.660097366607719 -102.72526557899965 95.328291536857705 204.58703120518373 0.0000000000000000 0.0000000000000000 0.0000000000000000 0.0000000000000000 3.2383423121564632 3.4885590650074207 1.2503733664591623 1.1169176821968376 989.16672976471693 989.16661879948504 1.1181934072927302 
-19.330054870268352 -111.30787861603891 84.791165438432898 -19.330054870268338 -111.30787861603893 84.791165438432913 -141.65447057636686 5.0122355354386628e-05 1.3993772911848647e-06 -9.3419892748587737e-05 0.0000000000000000 5.8946352521349610e-09 1.4983128071577312e-09 2.7832070877309434e-05 0.0020476255421832041 -5.7137611509925258e-12 -4.5107602449896987e-11 4.2210451329355012e-11 0.0000000000000000 -18.804221549666405 -110.90595113131390 93.354036648627854 267.24800799435923 0.0000000000000000 0.0000000000000000 0.0000000000000000 0.0000000000000000 3.2244806824642609 3.4594242242717437 1.2350811772634771 1.1125145083124133 1075.8310109348279 1075.8309020519662 1.1113490384017626 
-34.554348136344657 -105.01539945251118 75.659649177419666 -34.554348136344636 -105.01539945251122 75.659649177419638 -145.49122093770112 5.3981481627959347e-05 -1.2422102329658736e-05 -7.3025545293016185e-05 0.0000000000000000 -3.2165164032821806e-07 -7.3884526644145095e-08 3.0914837183204531e-05 0.0020882640577903405 -3.9013683284792557e-10 1.5136503587855102e-11 1.5318755385379866e-10 0.0000000000000000 -33.815892125380543 -104.71065599625929 85.007910193808286 270.69679205096202 0.0000000000000000 0.0000000000000000 0.0000000000000000 0.0000000000000000 3.2183466076598433 3.4476472475473945 1.2294591997111690 1.1111189778507553 1050.6175074703972 1050.6175970933691 1.1087910490640380 
-19.449114795105174 -100.63887767186722 86.995760963396989 -19.449114795105174 -100.63887767186723 86.995760963397004 -115.00286061032787 2.0055981313606854e-05 -8.0865479077797479e-06 -2.3065978844411748e-05 0.0000000000000000 5.9181502198857325e-09 9.6623309353560671e-10 2.7310172949768230e-05 0.0019155867347004957 2.6789650272234753e-11 1.4861229110773084e-10 9.2059413695286606e-11 0.0000000000000000 -18.921183722278450 -100.37968114352928 95.398064000337470 185.31956687594098 0.0000000000000000 0.0000000000000000 0.0000000000000000 0.0000000000000000 3.2290110925840376 3.4688688879317251 1.2400011427588273 1.1131892996838435 1039.2425342239735 1039.2422732211851 1.1135649751679184 
-31.855068643622904 -118.44025442159085 170.97596309599194 -31.855068643622896 -118.44025442159089 170.97596309599197 -108.37445345328166 4.7535253977185655e-05 5.0563205027319561e-05 1.1087420928139250e-05 0.0000000000000000 -1.4926721798564608e-07 -2.6374951493760480e-07 6.9860267480297408e-06 0.0019776712464606469 -2.3017703720930739e-10 -2.1094607551446221e-10 -1.1878988645553602e-10 0.0000000000000000 -31.124431206993112 -117.97934695114738 173.21200361760444 258.17126679857051 0.0000000000000000 0.0000000000000000 0.0000000000000000 0.0000000000000000 3.2297807444423219 3.4709476862221416 1.2413211016888814 1.1148513182851896 1017.9280449293645 1017.9277619193516 1.1141462942053588 
-31.383423392675404 -133.81658303778499 161.87812322147781 -31.383423392675383 -133.81658303778488 161.87812322147781 -80.609521213739782 3.3175027555413328e-05 2.8990180437079709e-06 -3.1767344404351835e-06 0.0000000000000000 1.7743265646364427e-08 -1.8368165141160210e-07 9.3881020185807447e-06 0.0018077571108110948 -2.0049755342276165e-10 -3.2673511082148075e-11 -2.6722866640520660e-11 0.0000000000000000 -30.642131568542830 -133.13454878399213 164.80820313575899 262.24283076768535 0.0000000000000000 0.0000000000000000 0.0000000000000000 0.0000000000000000 3.2339151672882456 3.4802460819249612 1.2465181845022719 1.1167462252143838 988.42101552384611 988.42062306666764 1.1164737671128253 
-43.654710976587310 -120.54503576420686 160.76052868427067 -43.654710976587317 -120.54503576420680 160.76052868427075 -59.201734122804126 6.2507110266053520e-05 2.8791088472887456e-05 6.3743636167617448e-06 0.0000000000000000 1.2217310919667810e-07 -7.0660223149853043e-07 8.9743554450311599e-06 0.0017762658535229767 -3.6410203192333369e-10 -2.4217044829241833e-10 -2.5793267101107797e-10 0.0000000000000000 -42.676694985445003 -120.10595080876966 163.70375490782192 268.28772502602959 0.0000000000000000 0.0000000000000000 0.0000000000000000 0.0000000000000000 3.2501995786417401 3.5153161783285563 1.2653701304916429 1.1224488091144542 984.38109639372499 984.38270446869751 1.1248843024524193 
-24.361812686405706 -114.68102117926499 158.62766297815347 -24.361812686405720 -114.68102117926495 158.62766297815332 -116.15579132533425 2.1663960132994603e-05 1.7233820420873455e-05 1.7849742156294504e-05 0.0000000000000000 6.8884774828692494e-09 1.6665322455367006e-09 1.0352621718112687e-05 0.0019121937865871066 -1.2527214302561786e-10 -8.6746564024177305e-11 -9.4047164062654387e-11 0.0000000000000000 -23.747323328369049 -114.23396745764113 161.81277151251504 321.01516800445251 0.0000000000000000 0.0000000000000000 0.0000000000000000 0.0000000000000000 3.2251810227931936 3.4613788407550024 1.2363458392374609 1.1131881356485975 1027.3946769573304 1027.3947630931334 1.1119169677055896 
-6.7679457729771189 -105.30922972691373 102.02373476264546 -6.7679457729771180 -105.30922972691377 102.02373476264549 -50.437094193221618 3.1412735995699417e-06 -3.6526195887525827e-06 -5.2716396403926436e-05 -26.531504115952814 3.4134453597012282e-09 1.1991472259609279e-09 2.3752573216739844e-05 0.0015358050361725011 -1.3157534643232985e-11 1.4152817208945392e-11 2.4173682338513769e-10 0.0014469131771974258 -6.4634479885999987 -104.98755276399999 109.33149947120000 327.67017865987640 0.0000000000000000 0.0000000000000000 0.0000000000000000 0.0000000000000000 3.2268227672464893 3.4651845645772514 1.2385279878298003 1.1134608038721547 888.72465347855314 888.72608846474895 1.1128930217361732 
-12.207171555087490 -97.331835123617680 93.509821426053804 -12.207171555087488 -97.331835123617680 93.509821426053804 -98.911381941332323 -1.5541799680202840e-06 -6.6686014959423547e-06 -6.1533090195022995e-05 -91.329954085422500 4.4877672689125347e-09 8.0130768687070031e-10 2.5768087493105434e-05 0.0017933725283168489 2.0191188400276444e-11 -2.9198112375782080e-11 1.9886919932406632e-10 0.0017686771649239002 -11.806838433999999 -97.116880539599975 101.43768333439998 212.90238721710071 0.0000000000000000 0.0000000000000000 0.0000000000000000 0.0000000000000000 3.2260547478926727 3.4633146972066049 1.2374185365171524 1.1127859774077939 990.97247490064751 990.97236851053890 1.1123934315500221 
-16.322446004933735 -110.75462884590208 95.299945587646221 -16.322446004933735 -110.75462884590208 95.299945587646164 -83.060286577927101 2.3314173011342744e-05 -6.4295903715190569e-06 -0.00011633538636475180 0.0000000000000000 5.3005917710624564e-09 1.4707117745871303e-09 2.5344308122399187e-05 0.0016988787482260493 -2.1762930409658829e-10 3.7014807978650455e-11 4.1080890686974570e-10 0.0000000000000000 -15.849604639409371 -110.36010279166017 103.09742667861765 236.22178992679409 0.0000000000000000 0.0000000000000000 0.0000000000000000 0.0000000000000000 3.2247304071531797 3.4607974679543223 1.2362296699975095 1.1132192077674545 965.41813978032837 965.41984192906273 1.1118601591786190 
-24.364108462386909 -99.781944855905436 94.420298137408352 -24.364108462386913 -99.781944855905451 94.420298137408324 -77.602937175291785 3.0308292127299176e-05 4.6722782610968433e-05 -7.1903847783028803e-05 0.0000000000000000 6.8889306759079005e-09 9.2350527225448797e-10 2.5552548670759737e-05 0.0017169743771213049 -2.0148454508474002e-10 -3.3693751224313551e-10 3.1166414738074031e-10 0.0000000000000000 -23.749578654390465 -99.534212460059550 102.28184693721489 211.57004919854941 0.0000000000000000 0.0000000000000000 0.0000000000000000 0.0000000000000000 3.2296659226794362 3.4713799696833831 1.2418890693583942 1.1148248542503698 965.02625294301708 965.02554150521973 1.1143997706642212 
-55.362606379249705 -108.61516402457396 106.88086466051459 -55.362606379249677 -108.61516402457393 106.88086466051460 -28.788128149070499 1.1078461017046029e-05 3.2285761780932551e-05 -2.4571595530994655e-05 0.0000000000000000 1.2204642775647909e-06 -1.2862491832685898e-06 2.2836256874332758e-05 0.0013816477042937390 -2.0638167063684691e-10 -4.5666330268120015e-10 8.9925134329725490e-11 0.0000000000000000 -54.087034329299712 -108.37170302860723 113.84396407125838 191.01171882188567 0.0000000000000000 0.0000000000000000 0.0000000000000000 0.0000000000000000 3.2547851901253519 3.5252689026595347 1.2707682505361644 1.1260916634372249 954.42624164247934 954.42729001335942 1.1272856700808267 
-42.724562457463016 -107.99710783517149 103.76933267722561 -42.724562457463001 -107.99710783517142 103.76933267722555 -38.683966035880907 -1.2683662793498022e-05 2.5120373125945475e-05 7.9525615005530452e-06 0.0000000000000000 1.0773435006980268e-06 -1.2157946031415571e-06 2.3735251021356037e-05 0.0014138815841366564 1.8114107341559681e-10 -5.0510648479904069e-10 -1.1293500305345106e-10 0.0000000000000000 -41.690910404717421 -107.74885629568415 110.97670241767709 270.34727434602189 0.0000000000000000 0.0000000000000000 0.0000000000000000 0.0000000000000000 3.2489432964339025 3.5119616281088737 1.2632444537747063 1.1235638397728691 966.36061754199102 966.36150678718263 1.1239418276639694 