# For a description of the Tecplot format see the Tecplot User's guide.
#
Variables=x,y,z,s_u,s_v,s_w,s_p,mono_f_vel_u,mono_f_vel_v,mono_f_vel_w,const,u_nu,v_nu,w_nu,p_nu,x_nu,y_nu,z_nu,const,u_ref,v_ref,w_ref,vol_ref,x_ref,y_ref,z_ref,const,I1,I2,I3,J,p1,p2,p3
Zone f=fepoint, n=1339, e=6475, et=brick, c=black
-58.7799 -70.4601 176.180 -58.779860630228434 -70.460121227484223 176.17957401745136 -44.075658086322306 -2.1073345330270854e-09 -1.3793922895766594e-07 4.1673656867094782e-07 -44.312932243241328 2.5867077577124142e-10 -1.3414727662031112e-11 2.8455289013962215e-08 1.0194047386511435e-05 -3.8435883247307161e-15 -5.6760241621667890e-15 -6.9229854543511103e-14 1.0235030064307409e-05 -58.668039002000000 -70.473359259200009 176.35421013599998 215.13583165143561 0.0000000000000000 0.0000000000000000 0.0000000000000000 0.0000000000000000 3.0194522472541721 3.0389931267500612 1.0195409970194895 1.0095797232964143 151.90008529147781 151.90008529136639 1.0097233345884844 
-65.085119816949856 -76.408738088485492 183.90138347987434 -65.085119816949842 -76.408738088485492 183.90138347987434 -45.717489259179928 -8.4446812358675646e-07 -1.5706884412022123e-06 1.6869762835867653e-06 -45.698666737492964 2.8221084844015637e-10 -6.0199067952737542e-12 2.0062218553107414e-08 1.0350187233206289e-05 2.0645382813885152e-13 6.9636764029579200e-14 -3.2045034702482926e-13 1.0526983083764416e-05 -64.963123215600007 -76.414687385200040 184.02450960799996 253.42820447565578 0.0000000000000000 0.0000000000000000 0.0000000000000000 0.0000000000000000 3.0198263719112530 3.0397460935149065 1.0199198507894689 1.0095797232964148 156.17042883813855 156.17042883808614 1.0099110469100177 
-69.793186749453724 -71.572270902806068 177.06796235488440 -69.793186749453739 -71.572270902806068 177.06796235488443 -44.498889461294290 -7.4468974691014030e-07 -2.8718582289074414e-07 1.8262894613199643e-07 -45.180221557258712 2.9978720547663151e-10 -1.2028475437908527e-11 2.7489652110190829e-08 1.0226453325369855e-05 1.7580225845841695e-13 5.5985895173596621e-14 -4.1094976429394369e-14 1.0313017126988080e-05 -69.663592608799988 -71.584146237200002 177.23667228800005 218.29881668600640 0.0000000000000000 0.0000000000000000 0.0000000000000000 0.0000000000000000 3.0200362087998900 3.0401670681067539 1.0201309909313472 1.0095797232964132 154.84130561676608 154.84130561672848 1.0100156835445167 
-57.274397502466364 -87.734702530806629 171.46475138294204 -57.274397502466385 -87.734702530806658 171.46475138294218 -42.190381299188459 -1.0601294211186921e-06 1.4805382770935195e-06 3.9849276259893755e-06 0.0000000000000000 2.5305103498740600e-10 8.0319223494385028e-12 3.3579941938199909e-08 9.9964519922202788e-06 1.6886995188614851e-13 -3.7634532996881970e-13 -2.5093268943535722e-13 0.0000000000000000 -57.165005282198301 -87.726774323660578 171.67083873969227 259.76550921814646 0.0000000000000000 0.0000000000000000 0.0000000000000000 0.0000000000000000 3.0176697044361482 3.0354055783403697 1.0177359323018107 1.0090006690849374 141.94042545157663 141.94042545117370 1.0088288014165596 
-89.059028700670297 -83.380515477154063 116.54044850856084 -89.059028700670297 -83.380515477154006 116.54044850856086 -38.882934890485238 -4.0808279737182234e-07 2.5808110853671106e-06 -1.1970310737971019e-06 0.0000000000000000 3.7170439989853143e-10 2.6195434710274412e-12 9.3278772927973819e-08 1.0090050764140816e-05 8.1531569148370785e-14 -6.1498381154232816e-13 1.1583266680617478e-13 0.0000000000000000 -88.898344731952406 -83.377922378373768 117.11292023788836 283.91631954144174 0.0000000000000000 0.0000000000000000 0.0000000000000000 0.0000000000000000 3.0177418657286372 3.0355396967767820 1.0177978675689789 1.0090322880359790 136.14557502944396 136.14557491800269 1.0088595870576533 
-97.770434596088322 -66.884080942187296 107.58796017702284 -97.770434596088322 -66.884080942187310 107.58796017702284 -43.220576834406032 -3.9775388231213957e-08 8.0788937264835217e-07 -5.0927141214453244e-06 -43.975046903859216 4.0422147226659716e-10 -1.7841714217148308e-11 1.0300948272146117e-07 1.0612573874395051e-05 -1.3624631621625556e-13 -8.5079683616746869e-14 4.1929555759804106e-13 1.0589290408943175e-05 -97.595692787999965 -66.901700632800015 108.22015140479995 322.25788568967050 0.0000000000000000 0.0000000000000000 0.0000000000000000 0.0000000000000000 3.0197812536159456 3.0396584503616553 1.0198773315161922 1.0095797232964143 151.53598782498011 151.53598789272391 1.0098899831203307 
-79.808288634088839 -67.514603047100834 107.98593838103790 -79.808288634088797 -67.514603047100820 107.98593838103790 -42.381159095488449 -1.4083495399274928e-06 1.2184961739179419e-06 -2.3596072663104280e-06 0.0000000000000000 3.3716297462293987e-10 -1.7065016066908353e-11 1.0257690652437645e-07 1.0513110934768686e-05 3.4905328800412548e-13 -2.6352373115980334e-13 2.8071877760284268e-13 0.0000000000000000 -79.662532843379708 -67.531450170133141 108.61547480962874 295.38956150422752 0.0000000000000000 0.0000000000000000 0.0000000000000000 0.0000000000000000 3.0183681454497280 3.0368104974089847 1.0184424354949508 1.0092111582136247 144.88406167866273 144.88406236877333 1.0091789251304062 
-94.647490107213187 -81.840209337622852 107.99684453976184 -94.647490107213187 -81.840209337622824 107.99684453976182 -41.953617940552924 -1.9790747803331874e-06 1.5895445647920847e-06 -3.7886642716860589e-06 0.0000000000000000 3.9256426928591104e-10 7.0918271255493437e-13 1.0256505866834688e-07 1.0512906135262236e-05 5.3529140175010832e-13 -3.2503634261643990e-13 3.8210967405789610e-13 0.0000000000000000 -94.477787882002133 -81.839503548705352 108.62630821647583 293.80807890400462 0.0000000000000000 0.0000000000000000 0.0000000000000000 0.0000000000000000 3.0183258998122251 3.0367213101084989 1.0183954827663522 1.0091904615796183 143.22745482502748 143.22745504974230 1.0091556417535903 
-47.401108822970706 -126.01356155066982 138.26141239027876 -47.401108822970691 -126.01356155066978 138.26141239027868 -24.501052613937041 -7.1811177706990979e-08 1.2353703931705566e-06 4.1472452138452799e-06 0.0000000000000000 5.3782656263127473e-09 -2.0055913428383148e-09 6.5679446354294869e-08 8.3912571443113642e-06 4.8571503658947715e-14 -2.6967653333314288e-13 -2.3189171578634421e-13 0.0000000000000000 -47.292355390977058 -125.96433165720771 138.67232254046354 244.31333887135355 0.0000000000000000 0.0000000000000000 0.0000000000000000 0.0000000000000000 3.0212598251330727 3.0426435595995245 1.0213839512406369 1.0107063026597380 124.75135328350733 124.75135328402584 1.0106354050619215 
-34.275107451565610 -140.50773320186926 138.79528555264238 -34.275107451565617 -140.50773320186920 138.79528555264235 -24.616730664645065 2.0305735641503029e-06 -5.4332559255412803e-07 2.1114523409360976e-06 0.0000000000000000 2.1021941770450583e-09 5.2794534817422812e-10 6.8015840760568294e-08 8.2202572791526578e-06 -4.6920501836875004e-13 1.0520308735496489e-13 2.6156956056046060e-14 0.0000000000000000 -34.196989160350306 -140.43319657724166 139.21506628885933 210.16870282748488 0.0000000000000000 0.0000000000000000 0.0000000000000000 0.0000000000000000 3.0208427144458430 3.0417997364877305 1.0209572004270315 1.0104397589437495 123.58593686993387 123.58593686945609 1.0104243253659708 
-31.015247005030645 -127.69803057563107 142.32819387597340 -31.015247005030659 -127.69803057563107 142.32819387597340 -26.566425020190248 1.4164496836463478e-06 6.5676750016813822e-07 3.9164763166561411e-06 0.0000000000000000 1.5502574571280014e-10 5.7629553906757267e-11 6.5249325720273532e-08 8.4270831373258632e-06 -3.1431995614466356e-13 -1.4701275714647718e-13 -9.5770938509050718e-14 0.0000000000000000 -30.948229910445860 -127.64113600963313 142.72864290474456 229.21992526850030 0.0000000000000000 0.0000000000000000 0.0000000000000000 0.0000000000000000 3.0202131684737039 3.0405294019757449 1.0203163839570213 1.0101820878677059 124.66555552565944 124.66555552577904 1.0101070592372248 
-48.515798846587977 -130.96115287264362 146.49993960882782 -48.515798846587970 -130.96115287264362 146.49993960882782 -25.477795136767270 1.2150751582060693e-06 3.6667122509768180e-06 -5.5331010601518326e-07 0.0000000000000000 5.0863384494457463e-09 -1.7773756146024023e-09 5.7352937883742714e-08 8.3170829626789564e-06 -2.5808300757277506e-13 -9.1956507511449068e-13 3.4210660274686815e-13 0.0000000000000000 -48.406431667502837 -130.90513559487593 146.85896726379221 225.63426853136377 0.0000000000000000 0.0000000000000000 0.0000000000000000 0.0000000000000000 3.0213938744562747 3.0429106101912371 1.0215169422723056 1.0106383437941366 125.98832505490631 125.98832505450524 1.0107012015682064 
-53.113333627634852 -84.931595347008312 76.846443887817387 -53.113333627634816 -84.931595347008326 76.846443887817429 -41.462885939924440 -1.0833113071886934e-06 9.2900461837057744e-06 -1.8995687204378760e-05 0.0000000000000000 1.0963468186819373e-09 -3.7626158676381743e-09 1.4492805509951960e-07 1.1013037094814238e-05 3.6609038097526388e-13 -3.7907644045120377e-13 2.0465098214793426e-12 0.0000000000000000 -53.009977022357148 -84.940192361847963 77.707205907375524 356.07450292316213 0.0000000000000000 0.0000000000000000 0.0000000000000000 0.0000000000000000 3.0187218472636008 3.0375195893063403 1.0187978139130467 1.0093919410971339 139.27119573800894 139.27063902508249 1.0093546721541882 
-40.394732288741274 -85.654323640459609 66.573002407026166 -40.394732288741274 -85.654323640459566 66.573002407026195 -53.019124216503371 -2.7019943457763924e-07 2.8673401023939873e-06 -9.9119969274622798e-06 0.0000000000000000 3.6608470752035973e-10 -1.2490900589575849e-09 1.5194562958635428e-07 1.2154556344627821e-05 -4.0700336986022996e-14 -3.8166001378534817e-13 1.6051894136039499e-13 0.0000000000000000 -40.313282635619565 -85.652866469445740 67.489144002613742 334.72004880612383 0.0000000000000000 0.0000000000000000 0.0000000000000000 0.0000000000000000 3.0180056978426912 3.0360897755429002 1.0180841735700641 1.0092045118592508 162.26655969432917 162.26990741060760 1.0090014324916614 
-43.013043956420674 -94.075062508006809 82.456503054018086 -43.013043956420681 -94.075062508006809 82.456503054018114 -36.487699677053804 9.6663399921821183e-06 2.8351827980762771e-06 -8.7743497956735880e-06 0.0000000000000000 -6.6522587272177390e-10 -2.9771058126246784e-09 1.3701411564744250e-07 1.0464510306851207e-05 -1.5002578439803848e-12 1.1285309698708231e-13 2.3347827482040954e-12 0.0000000000000000 -42.930125987095458 -94.071309017270835 83.274511392489799 283.94561953274422 0.0000000000000000 0.0000000000000000 0.0000000000000000 0.0000000000000000 3.0191841266509134 3.0384529302331540 1.0192689027277313 1.0094758016374110 134.54598073472891 134.54582889003373 1.0095883288965897 
-45.035978046990024 -98.991438012456769 67.113374140361785 -45.035978046990046 -98.991438012456783 67.113374140361827 -46.414866659228302 5.9938963606078434e-06 5.0313748651872438e-06 -1.4613298471685483e-05 0.0000000000000000 2.0736388647857315e-10 2.1999554955520747e-11 1.4700248662791185e-07 1.1607147961155759e-05 -2.0119378346391126e-12 -1.3164427368625519e-12 -9.9567434331154967e-13 0.0000000000000000 -44.946335306532468 -98.969717126470769 68.015559797458934 339.42980011114588 0.0000000000000000 0.0000000000000000 0.0000000000000000 0.0000000000000000 3.0189567797188923 3.0380056525067274 1.0190490066866216 1.0094212960756528 151.95296456417475 151.95219886251331 1.0094793635701658 
-35.741592405173058 -100.85230874628789 74.498232457255170 -35.741592405173044 -100.85230874628786 74.498232457255185 -43.448822256406181 5.0422006945648828e-06 3.6248476603110480e-06 -7.8365916747398822e-06 0.0000000000000000 -8.9147082282115548e-10 -1.2590727040633617e-09 1.4306162288600313e-07 1.1294657875642962e-05 -3.2858923239774125e-13 -1.0050688375126254e-12 8.9774656515431810e-13 0.0000000000000000 -35.672109309640206 -100.83293553867907 75.360366609178811 338.44965823895870 0.0000000000000000 0.0000000000000000 0.0000000000000000 0.0000000000000000 3.0175966355868762 3.0352676746694858 1.0176711297105401 1.0091452321374630 143.80872353260168 143.80863837505410 1.0087968068806779 
-49.071948758890237 -112.02977331957322 64.463279274616781 -49.071948758890237 -112.02977331957322 64.463279274616767 -42.359677319263483 9.4227779087703389e-06 4.6922359828028822e-06 -9.2140522269450047e-06 -38.454667783476175 2.2242961292273658e-10 3.8175032579523815e-11 1.4988295760076656e-07 1.1117367172457395e-05 -1.4138017807295537e-12 6.8682434659342879e-13 1.5053072013867864e-12 1.1266319814047790e-05 -48.975793059600008 -111.99207679200002 65.383142959360015 326.57209562220959 0.0000000000000000 0.0000000000000000 0.0000000000000000 0.0000000000000000 3.0191881017619879 3.0384588928762386 1.0192708890576425 1.0095305985460241 146.06646749866124 146.06659259638420 1.0095892412229761 
-25.297326784665888 -110.51771517005137 66.563804683426326 -25.297326784665877 -110.51771517005137 66.563804683426312 -49.394828100391543 1.7678940740616038e-06 2.4074779560525363e-06 -8.8880076876775246e-06 0.0000000000000000 1.3368251991496827e-10 3.6307165607318836e-11 1.4759982280843076e-07 1.1730448171170907e-05 -4.3617366528465531e-13 -8.4324507877250961e-13 4.1275397690535370e-13 0.0000000000000000 -25.239536857883341 -110.48187134057846 67.469656361758609 349.35568362690350 0.0000000000000000 0.0000000000000000 0.0000000000000000 0.0000000000000000 3.0185340916687706 3.0371496886558593 1.0186157005809600 1.0093330862055090 158.13403690207633 158.13419484555206 1.0092648335905274 
-44.164088495663442 -111.30541054321681 75.606874090566038 -44.164088495663457 -111.30541054321688 75.606874090565995 -36.969919954452614 5.1252057442499028e-06 -4.1408967382736554e-06 -5.2590447250216259e-06 0.0000000000000000 2.0411280651777550e-10 3.7278305442534070e-11 1.3777065177578152e-07 1.0530597752940384e-05 -1.1669255807097376e-12 9.4572470141351270e-14 9.7008165245215550e-13 0.0000000000000000 -44.075852747763513 -111.26860156453857 76.452402029906395 268.59635586333832 0.0000000000000000 0.0000000000000000 0.0000000000000000 0.0000000000000000 3.0197709375447777 3.0396417080068683 1.0198709187154622 1.0094341495340005 139.25681676623947 139.25682164227521 1.0098866200895114 
-58.383833482356160 -106.63435351779034 104.68236444071343 -58.383833482356131 -106.63435351779029 104.68236444071349 -21.407850641662343 1.7997442194143894e-06 8.4628679041829798e-06 -7.5402172893472208e-07 0.0000000000000000 6.4414271006904965e-09 -6.6705705779744379e-09 1.0874374289154166e-07 8.7195235816250154e-06 -6.4459413811954520e-13 -2.0814141132939105e-12 4.1467862801213709e-14 0.0000000000000000 -58.254647241440821 -106.62760994408018 105.33920711112118 241.62621693813244 0.0000000000000000 0.0000000000000000 0.0000000000000000 0.0000000000000000 3.0226542732368098 3.0454427231933221 1.0227886888973607 1.0111972405756349 122.99398577897169 122.99398682293121 1.0113301268585662 
-64.509978196481271 -90.075335171400567 95.962184805007624 -64.509978196481299 -90.075335171400582 95.962184805007624 -31.255936187652061 -3.8213550316111728e-06 2.8075829468821270e-06 5.5080750442526059e-06 0.0000000000000000 6.0820836892846400e-09 -7.7267501916874950e-09 1.2201141485732221e-07 9.5534423823071880e-06 5.8838564469651413e-13 -7.0054320213989533e-13 -8.9584615316507390e-13 0.0000000000000000 -64.370648572599308 -90.090304358695661 96.688480747766732 239.98138923263960 0.0000000000000000 0.0000000000000000 0.0000000000000000 0.0000000000000000 3.0203846729569523 3.0408646528873238 1.0204800794375222 1.0097968642880377 129.89481735307524 129.89479357486110 1.0101877326578237 
-76.076666540009938 -99.705592532576091 100.63519033685496 -76.076666540009953 -99.705592532576134 100.63519033685496 -29.009476240417143 -6.7424645342644112e-06 7.7346467911581644e-06 -1.6923251964654675e-06 0.0000000000000000 7.8396948510948965e-09 -5.5640104531615350e-09 1.1513986579279165e-07 9.4444321293254272e-06 2.1079376168174699e-12 -2.0751616982201375e-12 1.0361711659861447e-13 0.0000000000000000 -75.913673002404863 -99.702254402691466 101.32606574872912 288.13617662859207 0.0000000000000000 0.0000000000000000 0.0000000000000000 0.0000000000000000 3.0210615316256186 3.0422315095374022 1.0211701315642439 1.0102384691910593 129.21609197848377 129.21609626820006 1.0105298230822617 
-55.286574643431813 -93.576086638562202 102.65113319591325 -55.286574643431791 -93.576086638562188 102.65113319591320 -29.311515101223169 -4.0352719324452290e-07 4.0732514400520879e-06 1.9741190196794521e-06 0.0000000000000000 5.5116406316807143e-09 -7.6887315642338922e-09 1.1246505711929172e-07 9.3843668030923489e-06 3.6136370285933038e-13 -8.8650950372087260e-13 1.5654378167595146e-13 0.0000000000000000 -55.164710769962618 -93.586508083202432 103.32606452766413 222.68531933077850 0.0000000000000000 0.0000000000000000 0.0000000000000000 0.0000000000000000 3.0206122733029828 3.0413173378488052 1.0207051699273677 1.0102383714201169 131.55474644105792 131.55474736872114 1.0102996043218215 
-45.853740208371391 -176.01189797653853 155.33547390256589 -45.853740208371391 -176.01189797653845 155.33547390256587 -26.480822139200463 -3.2832167926384084e-06 -4.2337935158564828e-06 7.9889722395594295e-06 0.0000000000000000 2.1042021944306377e-10 1.1758848061926841e-10 5.1111345822363319e-08 8.0851599984413364e-06 7.7053213077985068e-13 1.1376998879098591e-12 -9.7250683656574903e-13 0.0000000000000000 -45.762777822239421 -175.89580528354742 155.64915507299250 248.91339099022119 0.0000000000000000 0.0000000000000000 0.0000000000000000 0.0000000000000000 3.0206260310989292 3.0413489128045090 1.0207230085652912 1.0100611923280765 122.20789160739834 122.20789160707228 1.0103083003705786 
-51.535626857151833 -185.69076345162654 167.92400726827432 -51.535626857151819 -185.69076345162651 167.92400726827435 -28.782692826075060 1.8335032609796656e-07 -3.1905929888967369e-07 -1.4712809853909632e-07 -29.668865555227853 2.3162614534721901e-10 1.2958896455916857e-10 3.7428493637747806e-08 8.3294313944745481e-06 -9.7130583389476760e-14 6.7306811799924388e-14 8.5817041009177333e-14 8.4454993436603534e-06 -51.435495451599998 -185.56281141599996 168.15371392000000 294.81703600272857 0.0000000000000000 0.0000000000000000 0.0000000000000000 0.0000000000000000 3.0189939564276789 3.0380711294170726 1.0190772784258486 1.0095794567614123 123.01773120349547 123.01773120335359 1.0094936141631032 
-42.759777288146999 -171.29141306305522 166.02813653113893 -42.759777288146999 -171.29141306305522 166.02813653113893 -28.279330909466694 4.6926486568280250e-07 -5.0526274643112476e-07 2.3258471080922042e-06 0.0000000000000000 4.5549626359706863e-10 -4.7031525465653160e-10 3.9055920485478439e-08 8.3185239867760072e-06 -1.2545681086711635e-13 -9.4763613573774932e-15 -1.0121129781686931e-13 0.0000000000000000 -42.672974891599750 -171.18173466392949 166.26923354793541 271.88244999766295 0.0000000000000000 0.0000000000000000 0.0000000000000000 0.0000000000000000 3.0191581923818145 3.0384024965781524 1.0192444171083430 1.0096579792046820 122.17637271068635 122.17637271056370 1.0095763661364539 
-59.495711738285578 -178.13607881126606 157.45104727897856 -59.495711738285550 -178.13607881126606 157.45104727897851 -29.728976144320647 -2.2418453166332490e-06 -7.0078573959299990e-07 -1.0074093982806446e-07 0.0000000000000000 2.6134127847909916e-10 1.2021654505200985e-10 4.8811868325060459e-08 8.4670171019704021e-06 5.0747906969376364e-13 1.5947785186614013e-13 -2.8339917219878037e-14 0.0000000000000000 -59.382734921100123 -178.01738339707751 157.75061606229067 243.94852352315442 0.0000000000000000 0.0000000000000000 0.0000000000000000 0.0000000000000000 3.0190470894099795 3.0381756533169928 1.0191286616271720 1.0096409519801637 124.50227604640654 124.50227604615144 1.0095190628856978 
-30.728699487527681 -102.74318835205040 94.598191036445300 -30.728699487527695 -102.74318835205035 94.598191036445300 -26.219945908194926 2.9270425383124137e-06 5.2698856568362187e-06 -1.3467813903656521e-05 0.0000000000000000 6.2590826143469655e-10 -2.2695951000123359e-09 1.2107624901365221e-07 9.2491472828997882e-06 -1.5592499529457780e-12 -2.3782885387916547e-13 6.4085338164873879e-13 0.0000000000000000 -30.660097366607719 -102.72526557899965 95.328291536857705 204.58703120518373 0.0000000000000000 0.0000000000000000 0.0000000000000000 0.0000000000000000 3.0206477396736080 3.0413889292919283 1.0207412874077602 1.0101830302240544 123.44050341913224 123.44050071396138 1.0103173444889215 
-18.851609842718986 -110.94231521571091 92.622011844402607 -18.851609842718975 -110.94231521571098 92.622011844402564 -32.610289093424164 4.8248097678594110e-06 7.0367370405032746e-07 -1.1424971113001321e-05 0.0000000000000000 1.0961889729266262e-10 3.6831107608215063e-11 1.1927641097031483e-07 9.8517789353692841e-06 -4.9171007603054686e-13 -2.6436677466224103e-13 3.5341644613731447e-13 0.0000000000000000 -18.804221549666405 -110.90595113131390 93.354036648627854 267.24800799435923 0.0000000000000000 0.0000000000000000 0.0000000000000000 0.0000000000000000 3.0191194148650076 3.0383188965597250 1.0191995753347174 1.0096389821696345 131.91217294891283 131.91217466376577 1.0095542618917757 
-33.884072826247561 -104.73470776297468 84.204105270145973 -33.884072826247568 -104.73470776297471 84.204105270145959 -34.839234348911894 4.5190872142333551e-06 -1.8374609958023721e-07 -9.6750848190005743e-06 0.0000000000000000 -8.1044330307508969e-10 -1.3547681725561581e-09 1.3429582701770591e-07 1.0105996541188910e-05 -1.2463061779635743e-12 5.4441711129503383e-14 6.2778213964012011e-13 0.0000000000000000 -33.815892125380543 -104.71065599625929 85.007910193808286 270.69679205096202 0.0000000000000000 0.0000000000000000 0.0000000000000000 0.0000000000000000 3.0182541599943709 3.0365897696427457 1.0183357136409164 1.0093889115694974 131.17513837881276 131.17515765564164 1.0091259693523860 
-18.968761065536274 -100.40313175288075 94.679765886927271 -18.968761065536277 -100.40313175288071 94.679765886927271 -29.952960813215434 1.5976357481411541e-06 -4.9670978933250169e-08 -3.3576307855422011e-06 0.0000000000000000 1.1005807723507563e-10 2.3751681177408554e-11 1.1703977942367769e-07 9.3927132232922603e-06 7.2536932610173191e-14 4.1854338649285822e-13 2.8293589959066733e-13 0.0000000000000000 -18.921183722278450 -100.37968114352928 95.398064000337470 185.31956687594098 0.0000000000000000 0.0000000000000000 0.0000000000000000 0.0000000000000000 3.0194493135697744 3.0389784669449962 1.0195292432175864 1.0096700987518616 127.66114186676324 127.66114678606274 1.0097175955523612 
-31.189560329134103 -118.01989322382330 173.02455185236062 -31.189560329134107 -118.01989322382327 173.02455185236064 -33.951448745278576 4.9153252048604226e-06 4.7958313408391061e-06 3.0007320381130250e-06 0.0000000000000000 2.1848204723355479e-11 -1.3020078405750794e-09 2.9026987866704492e-08 9.2330890102216900e-06 -1.0027486179455339e-12 -1.0112525712141545e-12 -3.1899250061540901e-13 0.0000000000000000 -31.124431206993112 -117.97934695114738 173.21200361760444 258.17126679857051 0.0000000000000000 0.0000000000000000 0.0000000000000000 0.0000000000000000 3.0192650410381345 3.0386125713132213 1.0193476232491816 1.0096993003172388 132.71478112270049 132.71478112232447 1.0096274928567082 
-30.708796275294848 -133.19540319950715 164.56019242472300 -30.708796275294848 -133.19540319950727 164.56019242472300 -29.602006232523792 4.5734089951411011e-06 3.7335983364647377e-09 5.6825006551969203e-07 0.0000000000000000 4.3131278104860503e-10 -6.8125321312209482e-10 3.9561974425056233e-08 8.6273267422394242e-06 -1.0273709020152052e-12 -4.6264554304662238e-14 -2.3499767284510819e-14 0.0000000000000000 -30.642131568542830 -133.13454878399213 164.80820313575899 262.24283076768535 0.0000000000000000 0.0000000000000000 0.0000000000000000 0.0000000000000000 3.0198013703388118 3.0396967616228223 1.0198955195911816 1.0099707328569789 127.41357415849005 127.41357415827054 1.0098987163738036 
-42.766311801714821 -120.14189457191618 163.46121519923645 -42.766311801714814 -120.14189457191618 163.46121519923645 -27.010885685116275 7.5290222447770825e-06 4.7688518652490831e-06 2.9785451529507698e-06 0.0000000000000000 1.7519651630908667e-09 -3.6341226237075591e-09 3.7011737853395819e-08 8.4137342590949849e-06 -1.8689110509872584e-12 -1.2798811184532019e-12 -8.4714104207037115e-13 0.0000000000000000 -42.676694985445003 -120.10595080876966 163.70375490782192 268.28772502602959 0.0000000000000000 0.0000000000000000 0.0000000000000000 0.0000000000000000 3.0218478112301579 3.0438165838303850 1.0219689638245919 1.0105781854426590 127.12159037901030 127.12159037859875 1.0109248135234170 
-23.802701336257559 -114.27441430410222 161.54048218407974 -23.802701336257549 -114.27441430410225 161.54048218407968 -33.580525315329162 2.3902880485983035e-06 1.7918914691942289e-06 3.0682362497012448e-06 0.0000000000000000 1.2810176877597890e-10 4.0962414016298965e-11 4.4366925688876784e-08 9.0894606544046181e-06 -6.0668074814670863e-13 -4.2196947462855892e-13 -1.4589286008852056e-13 0.0000000000000000 -23.747323328369049 -114.23396745764113 161.81277151251504 321.01516800445251 0.0000000000000000 0.0000000000000000 0.0000000000000000 0.0000000000000000 3.0189369204425800 3.0379552490168025 1.0190184231348136 1.0096158289199666 131.86652135014083 131.86652134983657 1.0094645036562158 
-6.4908894413847102 -105.01665624329053 108.70677151502859 -6.4908894413847102 -105.01665624329053 108.70677151502856 -21.504312942476805 1.8033495171568441e-07 7.5715197184007664e-08 -6.3946027269820429e-06 -18.872512694730140 6.3478916567660804e-11 2.9473160023663070e-11 1.0179341902727403e-07 7.8676599941614170e-06 -1.7949807049665659e-14 1.8484989795869109e-14 9.0371620027324419e-13 7.4388056770998059e-06 -6.4634479885999987 -104.98755276399999 109.33149947120000 327.67017865987640 0.0000000000000000 0.0000000000000000 0.0000000000000000 0.0000000000000000 3.0191738927992513 3.0384344219500807 1.0192606415859493 1.0096793107374844 108.76416518272025 108.76416512075069 1.0095844346337459 
-11.842916602722804 -97.136328392587956 100.75994435889459 -11.842916602722806 -97.136328392587970 100.75994435889459 -27.877182826163214 -7.4231118279349441e-07 -8.1807087785717804e-08 -7.0876575029576098e-06 -26.728082246869697 8.3456949684368440e-11 1.9698839781590038e-11 1.1043105851982202e-07 8.9300351430902532e-06 5.5492935180586721e-14 -1.4882008380054961e-13 7.1581871662593846e-13 8.8185527387815616e-06 -11.806838433999999 -97.116880539599975 101.43768333439998 212.90238721710071 0.0000000000000000 0.0000000000000000 0.0000000000000000 0.0000000000000000 3.0190185600946404 3.0381193790337271 1.0191009232049191 1.0095797232964145 120.96492564206548 120.96492656912008 1.0095053073277609 
-15.892217277899457 -110.39579723724677 102.43083372994957 -15.892217277899459 -110.39579723724681 102.43083372994960 -25.138568936346164 3.1342784591175086e-06 -8.0018957578098795e-08 -1.3263122290372802e-05 0.0000000000000000 9.8572778411964990e-11 3.6148792292856058e-11 1.0861491128721922e-07 8.5257967315885870e-06 -1.0449346500695714e-12 3.9822943177239944e-14 1.7201920647786943e-12 0.0000000000000000 -15.849604639409371 -110.36010279166017 103.09742667861765 236.22178992679409 0.0000000000000000 0.0000000000000000 0.0000000000000000 0.0000000000000000 3.0190399387449975 3.0381655597906199 1.0191257309565425 1.0096872617894961 117.29675408233375 117.29675288221050 1.0095175974966168 
-23.804960307644290 -99.556625860717105 101.60977695276458 -23.804960307644293 -99.556625860717119 101.60977695276459 -25.471254325911616 3.4848685428519622e-06 6.0322934945702702e-06 -8.6581686888893569e-06 0.0000000000000000 1.2810948482600002e-10 2.2701229784871657e-11 1.0950734496972814e-07 8.6905422990501955e-06 -5.6505592810393607e-13 -1.5687847489961998e-12 1.2424748491255334e-12 0.0000000000000000 -23.749578654390465 -99.534212460059550 102.28184693721489 211.57004919854941 0.0000000000000000 0.0000000000000000 0.0000000000000000 0.0000000000000000 3.0197054133370980 3.0395050156596279 1.0197997199518374 1.0098953954243886 119.49007972879735 119.49007933524946 1.0098512880104236 
-54.211359326669353 -108.38212053027308 113.25178326597674 -54.211359326669346 -108.38212053027310 113.25178326597674 -15.670130821563838 3.1378870829721956e-06 1.0587788744143355e-05 -7.3087898025618466e-06 0.0000000000000000 7.5208180608872146e-09 -6.3362811147154975e-09 9.7176775781213063e-08 8.5653452704510934e-06 -1.2600067093600486e-13 -1.3010740377743056e-12 -1.2710172812266851e-12 0.0000000000000000 -54.087034329299712 -108.37170302860723 113.84396407125838 191.01171882188567 0.0000000000000000 0.0000000000000000 0.0000000000000000 0.0000000000000000 3.0243816445172556 3.0489171926212766 1.0245358393051101 1.0118772296535823 116.18772079529295 116.18772067943659 1.0121935994034519 
-41.791588494934906 -107.76108359401796 110.36185910683399 -41.791588494934921 -107.76108359401800 110.36185910683392 -18.671152821333983 -2.1917869171901019e-06 7.0502439451481557e-06 7.1684888802301956e-07 0.0000000000000000 6.2392777956939406e-09 -6.0965164276741393e-09 1.0114760450466359e-07 7.8134173522135894e-06 1.1797496628391466e-12 -2.7677412570378602e-12 -6.7428941138914986e-13 0.0000000000000000 -41.690910404717421 -107.74885629568415 110.97670241767709 270.34727434602189 0.0000000000000000 0.0000000000000000 0.0000000000000000 0.0000000000000000 3.0227351702985881 3.0455919231730202 1.0228569317851886 1.0112942408527821 119.43340602751151 119.43340597997293 1.0113639120864806 