# For a description of the Tecplot format see the Tecplot User's guide.
#
Variables=x,y,z,s_u,s_v,s_w,s_p,mono_f_vel_u,mono_f_vel_v,mono_f_vel_w,const,u_nu,v_nu,w_nu,p_nu,x_nu,y_nu,z_nu,const,u_ref,v_ref,w_ref,vol_ref,x_ref,y_ref,z_ref,const,I1,I2,I3,J,p1,p2,p3
Zone f=fepoint, n=356, e=1130, et=brick, c=black
-67.7197 -97.8336 79.6313 -67.719696554435401 -97.833585351448150 79.631292416465584 -599.62329630351883 -0.00018833166542731676 0.00015436121916898035 0.0011707823140984332 5.7110621169107905e-18 3.8333105578658433e-09 1.5575718492755186e-10 2.9485373371329612e-05 0.0021522308940814124 6.1471220566396055e-10 -9.6101544642893934e-10 -1.8408512404882891e-09 -3.8167605071397299e-19 -65.754724465942431 -97.517594547729473 92.373562431030237 2074.8615187338191 0.0000000000000000 0.0000000000000000 0.0000000000000000 0.0000000000000000 3.3367679032108701 3.6981564528027735 1.3619014971420804 1.1668554589031928 2521.2201194505274 2385.0627744291701 1.1670047053740837 
-77.969517913323543 -131.51858875455005 64.579441504856618 -77.969517913323529 -131.51858875455008 64.579441504856618 -290.28443741435046 -0.00041144940128900478 -9.6111486896631346e-05 0.00014612184248765636 164.79086056567394 4.3355279366608093e-09 4.7240611422694201e-10 3.3101582879169200e-05 0.0018943258163375844 2.6845381946069761e-09 9.6595360272459632e-10 -1.1524827134985435e-09 -0.00043756270908456950 -75.747104543999981 -130.56019973999997 78.884476808000016 2128.8259272129790 0.0000000000000000 0.0000000000000000 0.0000000000000000 0.0000000000000000 3.3364049663073847 3.6975402555366359 1.3616497435247970 1.1668554589031941 1962.5155455649156 1970.4461220313822 1.1668929495747389 
-65.327154156724234 -122.58259101770095 56.050023906438916 -65.327154156724234 -122.58259101770093 56.050023906438916 -66.047265379829668 0.00030865939131585572 7.6457309948820356e-05 -2.0117832689713891e-05 365.35668151363859 3.7160743371345006e-09 3.8841729832483907e-10 3.5150776774628412e-05 0.00092589743525434468 -1.9947852778470763e-09 3.2468113457459285e-10 -4.8651786912108050e-10 -0.0015613507383346831 -63.422274742800013 -121.79461816400000 71.240629883439979 1237.7701333319521 0.0000000000000000 0.0000000000000000 0.0000000000000000 0.0000000000000000 3.3371584812377431 3.6986811064800160 1.3620166486303442 1.1668554589031932 1413.1916511536392 1429.6158636065134 1.1670560296771135 
-57.869896121764548 -133.06747461444425 62.076513186161520 -57.869896121764548 -133.06747461444428 62.076513186161499 -189.06314458778687 0.00040997395367351706 -0.00017576119852636104 -0.00018892151246856860 -285.14390696905190 3.3506832863849922e-09 4.8697135213160436e-10 3.3702911792943269e-05 0.0012375171194667284 -2.7497161815038973e-09 7.7573190726604079e-10 1.8907328812514078e-09 0.0034123527711309139 -56.152318124399997 -132.07954718800002 76.641416164000006 2090.5778096190215 0.0000000000000000 0.0000000000000000 0.0000000000000000 0.0000000000000000 3.3345415030116778 3.6937714124110950 1.3597499324733582 1.1668554589031936 1889.1625909282093 1963.4609069256212 1.1660792598043526 
-126.33505996960039 -110.95360267976805 76.098345566797178 -126.33505996960039 -110.95360267976807 76.098345566797192 -1007.4651849595002 -4.2674253427600701e-05 2.8969467673483592e-05 -0.00015777692094859312 -1137.3908082059259 6.7053380625736736e-09 2.7909186073316055e-10 3.0334164392797895e-05 0.0053541453825935049 1.1987696763588648e-10 -3.0412383044149279e-10 1.8108011871018806e-09 0.0061481162708642420 -122.89786571200003 -110.38740333199999 89.207425400000020 2092.2379289329847 0.0000000000000000 0.0000000000000000 0.0000000000000000 0.0000000000000000 3.3369846705735107 3.6985125925644811 1.3620324318527108 1.1668554589031923 3634.2431790310520 3611.9947160071633 1.1670629247547633 
-126.20371078474862 -129.42253068738569 80.868081098672789 -126.20371078474861 -129.42253068738569 80.868081098672775 -868.03065666628800 -3.4276809534331797e-05 -7.3408601371569132e-05 -0.00045132679028795942 -1301.1023984550231 6.6989067626366258e-09 4.5271120185930148e-10 2.9188234691446269e-05 0.0047148462724946353 1.0061712658687024e-10 6.7413175790386282e-10 1.4571044166725648e-09 0.0058287915097807166 -122.76981557999994 -128.50411506799998 93.481940963999989 2295.0048277193882 0.0000000000000000 0.0000000000000000 0.0000000000000000 0.0000000000000000 3.3369650146336927 3.6983206605528078 1.3618504510009839 1.1668554589031928 3515.2976727163132 3429.3166019101704 1.1669836915305682 
-89.854879131645603 -120.29756629248088 97.081192011220281 -89.854879131645660 -120.29756629248092 97.081192011220239 -398.81716033025401 3.2652002926522528e-05 0.00061696805671432179 -0.00051172773086633611 2.6549946937461772e-19 4.9178843219976898e-09 3.6692870963861424e-10 2.5293032294371187e-05 0.0022156913247203011 -1.8989650997125273e-10 -3.5713366368654265e-09 1.6135478014897471e-09 -5.9478091189183224e-20 -87.333945182495114 -119.55317056945796 108.01171823852533 1853.2119812635015 0.0000000000000000 0.0000000000000000 0.0000000000000000 0.0000000000000000 3.3358595734070913 3.6964657473048144 1.3611391545771603 1.1668554589031932 2349.3178565398716 2742.5184252624590 1.1666805407589462 
-125.30821673698310 -119.68194674579235 95.994282329464241 -125.30821673698311 -119.68194674579237 95.994282329464241 -324.64371389575024 -6.0306808354001169e-05 0.00016418056461563478 -0.00068085209812087939 -184.04213445627263 6.6550280841681797e-09 3.6114222723426792e-10 2.5554162505159180e-05 0.0023043073757846246 -1.6456816314416231e-11 -1.3255082393230612e-09 1.2343457368608916e-09 0.0013861901442285027 -121.89681335200000 -118.94929134799999 107.03765745040002 1571.7251237143605 0.0000000000000000 0.0000000000000000 0.0000000000000000 0.0000000000000000 3.3365389170110982 3.6974990574997446 1.3614504249268582 1.1668554589031923 2024.3469248742263 1736.2989572990521 1.1668123703241446 
-45.584513977225242 -165.22552817454658 114.53108593476119 -45.584513977225242 -165.22552817454655 114.53108593476119 -87.753600881634540 7.7967383504386011e-05 8.7910420183970995e-05 -1.3967194162297141e-05 0.0000000000000000 2.7487223608346767e-09 7.8928819036150354e-10 2.1100692578102098e-05 -0.0013738916842993172 1.0388672422088301e-08 4.9889680890482402e-09 -9.2005178742644732e-09 0.0000000000000000 -44.175503749389662 -163.62432261291502 123.64986896362305 1288.7765825848380 0.0000000000000000 0.0000000000000000 0.0000000000000000 0.0000000000000000 3.3427121185645636 3.7123622906605149 1.3702631523910187 1.1702379051171354 1750.1522255746104 2565.2470764809414 1.1705835319607159 
-16.147888342059808 -145.08181840510133 128.38231526413588 -16.147888342059812 -145.08181840510133 128.38231526413591 -100.03371928829273 5.9757331572046839e-06 -8.4331456253372163e-05 -5.4752300507167775e-05 103.02322480007685 1.3063859438666725e-09 5.9992988354906629e-10 1.7772932579873668e-05 -6.1493493141388743e-05 9.3908853494181560e-10 -6.8149879978355351e-09 -8.1852625962225750e-09 0.011187594282233029 -15.478227839600008 -143.86476845600004 136.06298808800005 1207.7015194609139 0.0000000000000000 0.0000000000000000 0.0000000000000000 0.0000000000000000 3.3360838839469547 3.6964943575125058 1.3609013380750281 1.1676969355974460 1904.8902495214816 1812.6067291681427 1.1665743689091634 
-45.584513977225242 -165.22552817454658 131.98097985830208 -45.584513977225242 -165.22552817454655 131.98097985830202 -187.89269665243236 8.2898791309312297e-05 -7.8898628659816020e-05 1.3127007591672816e-05 0.0000000000000000 2.7487223608346767e-09 7.8928819036150344e-10 1.6908352851174868e-05 0.0011885849475656777 3.9180858936048179e-10 -3.1283984514728472e-09 1.5295936228881463e-09 0.0000000000000000 -44.175503749389669 -163.62432261291511 139.28801968872074 2260.0113226803110 0.0000000000000000 0.0000000000000000 0.0000000000000000 0.0000000000000000 3.3353107827073099 3.6949236554820297 1.3601071800528424 1.1680977917541959 2092.8750968074605 2031.9348320635602 1.1662443550816475 
-6.3042956664976044 -163.01783245289255 122.09158517072771 -6.3042956664976053 -163.01783245289249 122.09158517072773 -482.77066924239790 0.00021985956328885979 -0.00014461127837811288 0.00020891075307064111 -720.16964855029778 8.2406881318775039e-10 7.6851902619523581e-10 1.9284281460585362e-05 0.0023780764435263903 -1.8311399444565124e-09 3.9524618005116199e-09 -1.8875927191235275e-09 -0.0018095433441779267 -5.8818733370400009 -161.45872929999999 130.42539591680000 1840.5999298976626 0.0000000000000000 0.0000000000000000 0.0000000000000000 0.0000000000000000 3.3355660133742835 3.6953298758415509 1.3602559893509025 1.1668554589031934 2644.1124463533274 2522.5100843115279 1.1662999836738590 
-10.303537950002950 -107.61143120178309 180.74500438560176 -10.303537950002950 -107.61143120178306 180.74500438560176 -219.39831267944464 -8.8560932018574523e-06 5.6969989836228210e-05 3.2093386018579039e-05 -252.16551961066327 1.0200245648128714e-09 2.4767210504705872e-10 5.1927884072711095e-06 0.0014729767659302216 2.8033003704689121e-10 -8.0752679938682943e-10 -5.2821357866012286e-12 0.0018658041095695086 -9.7806680107999995 -107.10896956400003 182.98909712000000 1021.2952016557671 0.0000000000000000 0.0000000000000000 0.0000000000000000 0.0000000000000000 3.3366906105439686 3.6978630118812714 1.3616748613193259 1.1668554589031925 2121.1395997358909 2114.7296634434083 1.1669083222611007 
-18.289210078221352 -109.16940789058435 192.35526460642083 -18.289210078221348 -109.16940789058435 192.35526460642083 -247.18327643732860 -0.00011195161752658279 0.00015316428749490165 6.0349084621098229e-06 -314.86711479216007 1.4113066826304532e-09 2.6232926941815999e-10 2.4034216110635494e-06 0.0017584833269518817 4.0638734170690376e-10 -1.0228491619491359e-09 3.3872559335473166e-10 0.0023970113819511063 -17.565766725200003 -108.63723447200002 193.39391677600000 1230.2822850381203 0.0000000000000000 0.0000000000000000 0.0000000000000000 0.0000000000000000 3.3366856958477653 3.6978342770994486 1.3616501236266281 1.1668554589031936 2223.3125754665248 2217.7834057319806 1.1668971617820894 
-45.584513977225242 -120.29756629248088 166.88076770538393 -45.584513977225342 -120.29756629248084 166.88076770538410 -327.00544883982184 -6.8539835620019389e-05 9.5226783504446570e-05 0.00013118032571553427 0.0000000000000000 2.7487223608346771e-09 3.6692870963861418e-10 8.5236734150839766e-06 0.0012579103009141273 -4.3848689963203816e-10 -9.3373945031161980e-12 -2.5211635980032389e-09 0.0000000000000000 -44.175503749389591 -119.55317056945772 170.56432113891603 1872.3464537223574 0.0000000000000000 0.0000000000000000 0.0000000000000000 0.0000000000000000 3.3361447445313410 3.6967907990093054 1.3611526542487549 1.1668554589031943 2361.2545387521777 2381.0276045967498 1.1666874129425415 
-9.8431463276358961 -125.23567766452948 187.30123970950802 -9.8431463276358944 -125.23567766452948 187.30123970950805 -248.86991392403797 4.3126951411456711e-05 -0.00032459955473251634 -0.00010782992337391109 -247.75632946829003 9.9746666482047885e-10 4.1335557199317918e-10 3.6176518669606139e-06 0.0015544180217744500 -7.8815030069989942e-11 1.0037617927869658e-09 2.4501252953054545e-10 0.0014876121498884651 -9.3318398883999993 -124.39710846400000 188.86462832000004 1016.3527334425750 0.0000000000000000 0.0000000000000000 0.0000000000000000 0.0000000000000000 3.3366928591906384 3.6978392263101716 1.3616473844962251 1.1668554589031941 2281.4170179849880 2277.9994912931506 1.1668955681052304 
-45.584513977225242 -165.22552817454658 97.081192011220281 -45.584513977225242 -165.22552817454655 97.081192011220253 -298.72788094548764 -2.5614158260162661e-05 -0.00050017401632061970 -9.2037810006950131e-05 4.2603889382877375e-17 2.7487223608346767e-09 7.8928819036150344e-10 2.5293032280160336e-05 0.0018362708796046711 6.2957630771569112e-10 4.4816954120721805e-09 4.4382971489502026e-10 -2.7997447951482683e-18 -44.175503749389662 -163.62432261291499 108.01171823852535 1450.3671205666894 0.0000000000000000 0.0000000000000000 0.0000000000000000 0.0000000000000000 3.3405173498136369 3.7061397259986921 1.3661465374162836 1.1692271739323157 1511.9838928849933 2031.3471321632264 1.1688067095218895 
-63.000086003305327 -162.50415277317475 72.522432100369770 -63.000086003305327 -162.50415277317472 72.522432100369770 -1232.0435990714886 -0.00044662572172519277 -0.0014472483747104833 -0.00030612380251533532 -17.936679387870019 3.6020511018364232e-09 7.6369266466258523e-10 3.1193278150709609e-05 0.0064967338918752865 2.2492523872895578e-09 8.4441947905948690e-09 2.5998164906335357e-09 0.0048614926930935394 -61.153654769600031 -160.95484587600001 86.002782780800032 1645.6757988676138 0.0000000000000000 0.0000000000000000 0.0000000000000000 0.0000000000000000 3.3174420400782760 3.6576585541642062 1.3406836827555646 1.1627875421787233 3795.1715192208640 3754.8736480491702 1.1578888161956691 
-45.643182287451772 -169.68791716141877 69.480175375862842 -45.643182287451772 -169.68791716141874 69.480175375862828 -2417.5056312029819 0.00054754996090562442 -0.0027362447921783560 -0.00050440067879807863 -1036.3966035086964 2.7515942857547770e-09 8.3121864946633660e-10 3.1924180802889168e-05 0.0086850160821379772 -1.4971344123212524e-09 1.1353211125489740e-08 3.3482223434277040e-09 0.0086500716812109840 -44.232698507600013 -168.00161050399998 83.276389748800028 1737.4139093181343 0.0000000000000000 0.0000000000000000 0.0000000000000000 0.0000000000000000 3.3383662913128238 3.7013260028158110 1.3634636470231680 1.1668554589031932 5804.3391255427514 5723.2751995128183 1.1676792066951285 
-45.584513977225242 -187.68950911557940 97.081192011220281 -45.584513977225242 -187.68950911557934 97.081192011220196 -2406.5577308750935 0.00014605835031880970 -0.0012051464687865691 -0.0014060861839390935 3.5824953966469192e-19 2.7487223608346767e-09 1.0004468364854802e-09 2.5293032294371187e-05 0.0092865534281083607 -5.5783553787743345e-10 6.0338024179683063e-09 2.2448368173848265e-09 -4.8017367216841417e-20 -44.175503749389676 -185.65989863464350 108.01171823852533 1616.4576808433910 0.0000000000000000 0.0000000000000000 0.0000000000000000 0.0000000000000000 3.3321323630284487 3.6881760597179634 1.3565282641049718 1.1659804033595427 6114.9584541390368 6088.5998290888019 1.1646993247591484 
-89.854879131645603 -142.76154723351374 131.98097985830208 -89.854879131645660 -142.76154723351374 131.98097985830202 -288.86074672790500 5.4741887453335275e-05 -8.3620786621882055e-05 5.0624191681245890e-05 0.0000000000000000 4.9178843219976898e-09 5.7810201070651591e-10 1.6908352851174868e-05 -0.00041177605486819336 1.3450154751277179e-09 -9.6725519627941786e-10 -4.3696280002818377e-10 0.0000000000000000 -87.333945182495100 -141.58874659118649 139.28801968872074 1877.7986991733408 0.0000000000000000 0.0000000000000000 0.0000000000000000 0.0000000000000000 3.3407433616007616 3.7067352251924608 1.3665023403860352 1.1685682517656584 2335.1933203051867 2353.8245523048622 1.1689847123699553 
-67.719696554435430 -165.22552817454658 131.98097985830208 -67.719696554435387 -165.22552817454655 131.98097985830199 -237.70430715944184 -9.4415556911021269e-05 0.00017833652387939244 0.00018501136110992653 2.4813937450057937e-18 3.8333105578658433e-09 7.8928819036150323e-10 1.6908352851174868e-05 -0.0038927028031090472 -2.5921015198360143e-09 -6.2182499306368149e-10 -1.6613530738719712e-08 -1.7801458362277327e-19 -65.754724465942374 -163.62432261291517 139.28801968872077 2018.1238718776010 0.0000000000000000 0.0000000000000000 0.0000000000000000 0.0000000000000000 3.3341637502805419 3.6924656751786218 1.3587901983635200 1.1687622909928341 2157.1441549543374 2165.3738097098485 1.1656808655676283 
-89.854879131645603 -165.22552817454658 114.53108593476119 -89.854879131645660 -165.22552817454655 114.53108593476112 -367.01787512820061 -0.00024273466278681145 -5.2874747090953394e-05 0.00011725418140922651 0.0000000000000000 4.9178843219976898e-09 7.8928819036150344e-10 2.1100692578102098e-05 0.0023495916092522743 7.0519315739507315e-09 5.9556443431602582e-09 1.7965363244825075e-08 0.0000000000000000 -87.333945182495114 -163.62432261291505 123.64986896362312 1549.0027140339625 0.0000000000000000 0.0000000000000000 0.0000000000000000 0.0000000000000000 3.3406984821169301 3.7060405175052855 1.3658514323816104 1.1681419839353011 2227.8154467702207 2392.4010832239287 1.1686875188540602 
-89.854879131645603 -142.76154723351374 114.53108593476119 -89.854879131645660 -142.76154723351374 114.53108593476111 -209.03522033915394 -0.00015841016313366228 -6.3844657907470277e-05 0.00025227768478078999 0.0000000000000000 4.9178843219976898e-09 5.7810201070651601e-10 2.1100692578102102e-05 -0.0040524309016967261 6.0451784996360806e-09 -8.0108375839630401e-09 1.5125335979310938e-09 0.0000000000000000 -87.333945182495086 -141.58874659118649 123.64986896362313 1389.1126189879024 0.0000000000000000 0.0000000000000000 0.0000000000000000 0.0000000000000000 3.3379120713982782 3.7013339144807031 1.3639223644026757 1.1690559699022451 2016.7653824486174 2533.2171634786796 1.1678841718732762 
-46.632978072310088 -110.89886632045386 31.062137919195735 -46.632978072310081 -110.89886632045386 31.062137919195724 -1783.0518709993396 0.00048699265447780567 4.0003335434823204e-05 -0.00053572637233806418 -1858.9601141262535 2.8000952667639467e-09 2.7858426676630183e-10 4.1154120246744696e-05 0.0086439708023078633 -1.3570382883924232e-09 4.1540146723976883e-10 2.2987205456638860e-09 0.0094164814482132920 -45.197633928000002 -110.33371083599998 48.847122559999995 1069.0094105005942 0.0000000000000000 0.0000000000000000 0.0000000000000000 0.0000000000000000 3.3366031803395164 3.6976735845966431 1.3615725721534522 1.1668554589031928 5115.7492808373709 5116.5157818998541 1.1668644029700714 
-58.866235792788480 -99.172787929793387 28.137387961129090 -58.866235792788515 -99.172787929793373 28.137387961129090 -1531.2891547686620 0.00019196187669751871 4.6964666533117117e-05 -0.00032910328854041549 -1087.1711456436124 3.3995006809561801e-09 1.6835577376639321e-10 4.1856791881400575e-05 0.0091357079012144952 -2.3670139043278235e-10 -2.9088916017316012e-10 1.6753403502674621e-09 0.0092646340576139543 -57.123633070400032 -98.831257531200038 46.226036100800002 1475.5774262919704 0.0000000000000000 0.0000000000000000 0.0000000000000000 0.0000000000000000 3.3365835555756131 3.6976327381342746 1.3615514120413190 1.1668554589031932 4327.9459437602200 4328.6300163338465 1.1668553422520709 
-61.959947555279484 -106.05986593968471 40.450689203149608 -61.959947555279513 -106.05986593968470 40.450689203149622 -990.66889245339178 0.00016638628555800796 0.00062747443319915237 -0.00074344299163086962 50.856780668448202 3.5510849816233758e-09 2.3309665309056982e-10 3.8898519349572780e-05 0.0058091296529083165 -1.6522120232411910e-10 -3.5750143589761452e-09 5.3726442013079374e-09 0.0047585587369262375 -60.139641125599979 -105.58699381199996 57.260903223199996 1724.6135661994952 0.0000000000000000 0.0000000000000000 0.0000000000000000 0.0000000000000000 3.3365470661937233 3.6975637698320019 1.3615195638698234 1.1668554589031932 3525.0700453510294 3520.9376619609047 1.1668417383354073 
-20.176876077003300 -88.249267053636828 40.939626770797297 -20.176876077003296 -88.249267053636828 40.939626770797297 -1373.0289543268054 -1.6299046629658953e-05 -0.00023309588045522438 -0.00088859758422181077 -1429.6423162785652 1.5037986411670090e-09 6.5665251014479509e-11 3.8781052023040268e-05 0.0071980489305383038 -1.5763978794488738e-10 3.5619215305500258e-10 2.4958681568152616e-09 0.0078133404630212223 -19.406020858399991 -88.116056368799974 57.699076624800000 1439.6451283969650 0.0000000000000000 0.0000000000000000 0.0000000000000000 0.0000000000000000 3.3365317793048965 3.6975227997362698 1.3614932351224440 1.1668554589031932 4304.3997330533675 4305.2735520656342 1.1668304561339293 
-60.561724638916871 -180.48045354696470 64.435167160863756 -60.561724638916878 -180.48045354696475 64.435167160863770 -4364.7053060495882 0.00029319735062604505 -0.00087154342143998785 -0.00099911624450687241 -5208.3411609526911 3.4825788919334851e-09 9.3269170164944605e-10 3.3136244809384152e-05 0.014021890537354966 -6.6742068296835499e-10 1.0348891811473433e-09 4.4739930967354469e-09 0.023012319100800486 -58.776536899199989 -178.58832514800000 78.755181813599989 1584.4809985467919 0.0000000000000000 0.0000000000000000 0.0000000000000000 0.0000000000000000 3.3404611030285731 3.7058898230022881 1.3659466491181222 1.1668554589031939 9909.5774376736936 9936.6498028878686 1.1687460767220590 
-76.652716404799776 -186.95848253321194 57.149293462453912 -76.652716404799776 -186.95848253321194 57.149293462453905 -3486.4382962301001 0.0020959431951682013 -0.0013796494598587435 8.9745081478364558e-05 -3660.1141073855083 4.2710071035401143e-09 9.9358388183645729e-10 3.4886677092060836e-05 0.013055591239328534 -6.6295289343851073e-09 3.5829223209435726e-09 -5.5598693376422345e-10 0.012794051600415550 -74.463376691600018 -184.94281327599995 72.225767276240006 1182.3928641350060 0.0000000000000000 0.0000000000000000 0.0000000000000000 0.0000000000000000 3.3378926142732790 3.7002808537927598 1.3628883587643499 1.1668554589031941 7930.5735989406103 7928.8332903129785 1.1674280791834468 
-71.804337943766186 -214.12216638636562 73.180211311041489 -71.804337943766186 -214.12216638636571 73.180211311041489 -4405.7571583656190 0.00029635293935122658 0.00015060701359831806 -0.00078590202485650476 -4686.5611599726662 4.0334375839279346e-09 1.2489240752699973e-09 3.1035246596644583e-05 0.014125266033531763 -1.1053251106051865e-09 2.1739999544244748e-11 9.5154985188782493e-10 0.014186989032877555 -69.736773305200003 -211.58846536000007 86.592267764799999 1391.6778601551057 0.0000000000000000 0.0000000000000000 0.0000000000000000 0.0000000000000000 3.3355124285853917 3.6954989536841740 1.3604921564637016 1.1668554589031941 10301.601237365596 10303.923327715853 1.1664026816962443 
-89.321378286061801 -209.72373628231412 77.326569284262433 -89.321378286061787 -209.72373628231415 77.326569284262419 -2972.0181554779042 0.0017442641487321643 -0.00087908468510821726 -0.00070876499485795770 -3386.5215660383838 4.8917421224814453e-09 1.2075869193495237e-09 3.0039083448230031e-05 0.011613646516285648 -5.8408513540051181e-09 3.3771451291635253e-09 3.3179679433292973e-10 0.013782304473332006 -86.813844096400004 -207.27391660800001 90.308128229600001 1955.0875990986240 0.0000000000000000 0.0000000000000000 0.0000000000000000 0.0000000000000000 3.3394254560635921 3.7036934817872980 1.3647825059064913 1.1668554589031941 7256.6040054478790 7271.5103961481009 1.1682471823484877 
-76.560639966172516 -215.13842536524092 88.874493235890654 -76.560639966172516 -215.13842536524095 88.874493235890654 -3375.2454687603786 9.0127069648598222e-05 8.4866668574008978e-05 -0.00017809261992890314 -3926.0287459687761 4.2664882737852849e-09 1.2584844277796494e-09 2.7264692931794343e-05 0.011530814998850262 -2.2260662941247706e-10 -4.0159127441772911e-10 9.1384971923807887e-10 0.012163614173077580 -74.373612905599998 -212.58534351999998 100.65708370800000 988.41240310934302 0.0000000000000000 0.0000000000000000 0.0000000000000000 0.0000000000000000 3.3369247692326960 3.6985335819906795 1.3621217507935259 1.1668554589031934 8824.4559824166899 8832.6549022724266 1.1671062841726525 
-67.719696554435430 -187.68950911557940 97.081192011220281 -67.719696554435387 -187.68950911557934 97.081192011220196 -1914.0660247179471 0.00060386348283337447 -0.0013721461665468936 -0.00094412509940680601 -6.0904386150372701e-18 3.8333105578658425e-09 1.0004468364854802e-09 2.5293032280160332e-05 0.0087657137841244959 -2.3648599474481830e-09 3.4703308886788035e-09 6.2865805214292354e-10 2.8070545684779744e-19 -65.754724465942374 -185.65989863464350 108.01171823852535 1808.0980320372519 0.0000000000000000 0.0000000000000000 0.0000000000000000 0.0000000000000000 3.3332039124243273 3.6898759870781053 1.3571307838017006 1.1658709424256235 4912.1154338080078 4848.5445950085505 1.1649411442863293 
-85.882518959872698 -210.83157340081129 98.211746810127636 -85.882518959872712 -210.83157340081129 98.211746810127650 -1992.1162438725514 0.0018206379008227998 -0.0011777842921040689 -0.0013464196011578368 -1710.5793610561179 4.7232484590153945e-09 1.2179905972686813e-09 2.5021416316661771e-05 0.0084264407220184922 -7.2768730166688619e-09 4.2293167620262088e-09 3.9055563287993232e-09 0.0078503213882978040 -83.461357431600007 -208.36062644399999 109.02489266960001 1287.0831768928649 0.0000000000000000 0.0000000000000000 0.0000000000000000 0.0000000000000000 3.3386939461404914 3.7022698966253635 1.3640942489120196 1.1668554589031932 5098.9289923457900 5182.9609735699642 1.1679458054291609 
-42.900435924053966 -130.99466993069484 49.928475904555739 -42.900435924053959 -130.99466993069478 49.928475904555739 -941.56108382142907 0.00041083603318911669 -0.00018170397971476582 -0.00029827589043718717 -1242.6913106772993 2.6172057854267905e-09 4.6749537574441991e-10 3.6621479630127851e-05 0.0047647544629760043 -1.7221279862443981e-09 1.0525277737874601e-09 1.7021465449618086e-09 0.0068268112566696780 -41.558840772800004 -130.04627243999997 65.754654395919971 2180.9238908936368 0.0000000000000000 0.0000000000000000 0.0000000000000000 0.0000000000000000 3.3368992087647107 3.6982777138965868 1.3618798870842181 1.1668554589031932 3633.1023671608177 3636.2248739691499 1.1669955843282209 
-23.646088097093184 -135.47903229115209 38.938807957384746 -23.646088097093184 -135.47903229115209 38.938807957384746 -1706.1894345103935 0.00013227436652330437 5.8056759214581351e-06 -5.1030201552956954e-06 -1782.2490091039888 1.6737828900659224e-09 5.0964343856207971e-10 3.9261749051888728e-05 0.0077671442867965649 -5.8730054860541371e-10 -2.5526941923417669e-10 2.1801180448201873e-10 0.0069909472477260324 -22.788097858800000 -134.44511465599999 55.905993737599999 935.86986824075086 0.0000000000000000 0.0000000000000000 0.0000000000000000 0.0000000000000000 3.3363616289745677 3.6971616201235156 1.3613016628288368 1.1668554589031932 4845.2817690260954 4843.3781913788707 1.1667489135599485 
-11.580717830763099 -104.03672588964868 45.860058337931420 -11.580717830763096 -104.03672588964872 45.860058337931406 -1487.5528201080276 7.5951696946218909e-05 -0.00044579636938305955 -0.00070477309048827183 -1231.2043043231060 1.0826027851962294e-09 2.1407875472334576e-10 3.7598917575820678e-05 0.0070760436850655700 -3.8630615654003185e-10 1.0077265233209875e-09 1.5568304176087281e-09 0.0063158709671051619 -11.025769398400001 -103.60243655599999 62.108642139439993 1284.9349949311236 0.0000000000000000 0.0000000000000000 0.0000000000000000 0.0000000000000000 3.3364804151789689 3.6974213094819603 1.3614434449419517 1.1668554589031928 4552.2870076662366 4550.5715019717018 1.1668092623627688 
-30.012138970088969 -141.92108073351446 54.745163596068437 -30.012138970088976 -141.92108073351446 54.745163596068437 -1105.7571882395785 6.6034925445685754e-05 0.00023118146429530244 -0.00056561985010947756 -1195.7433191766702 1.9857061550609956e-09 5.7019411414671584e-10 3.5464269664942101e-05 0.0053216029455005085 -1.3317868746580789e-10 1.0657119065331267e-10 2.0677584847360261e-09 0.0085397956321638501 -28.994254794799993 -140.76430841599998 70.071247290159988 2176.9829965296321 0.0000000000000000 0.0000000000000000 0.0000000000000000 0.0000000000000000 3.3371966971222800 3.6989543434466916 1.3622622034185243 1.1668554589031932 3902.4714192970941 3912.3566332456385 1.1671579973175239 
-106.34141330284751 -196.24672596697627 81.491257956246130 -106.34141330284751 -196.24672596697630 81.491257956246145 -1315.0871663360067 2.4077297808846729e-05 -0.00020955578071418790 -0.00081031533016116711 -1717.7083710600489 5.7256963614804590e-09 1.0808864914224614e-09 2.9038516348833813e-05 0.0079164939638414877 1.3984143393669795e-10 3.3948780857983051e-10 3.8768301610459980e-09 0.0068876867284890040 -103.40639267600000 -194.05392295999994 94.040416199999996 2662.2783756828549 0.0000000000000000 0.0000000000000000 0.0000000000000000 0.0000000000000000 3.3366681627022770 3.6979534054439971 1.3617946411880839 1.1668554589031930 3889.1485635008094 3906.2281647947379 1.1669619731824687 
-84.905113184267464 -163.87686793814342 63.371436562993438 -84.905113184267506 -163.87686793814336 63.371436562993473 -1618.7798653861580 4.0478041535338151e-05 -0.00019314435415978721 -0.00015190687615947339 -1653.0049661533128 4.6753507731978061e-09 7.7659523256556895e-10 3.3391806251614753e-05 0.0090222848736574695 1.1721675393048479e-09 1.1760097978975580e-09 2.1652796544002622e-09 0.010044955471658394 -82.508500824799995 -162.30138233600007 77.801893530400037 2229.3857910936085 0.0000000000000000 0.0000000000000000 0.0000000000000000 0.0000000000000000 3.3395044435802532 3.7038435361745328 1.3648515357533599 1.1668554589031936 4682.6508563036587 4680.9491392583159 1.1682743535577265 
-28.983134238249782 -125.91356152773915 118.89355941564642 -28.983134238249793 -125.91356152773915 118.89355941564644 -49.971753524346319 2.5917817198555000e-05 -6.2945728838321741e-05 1.8756498192840187e-05 -1.1959176859006942e-18 1.9352884850221130e-09 4.1972647579768823e-10 2.0052607652587536e-05 0.00018013841415289009 4.2088841263982915e-09 2.3899817051123159e-09 -3.5535474421440513e-10 5.9791746280627571e-20 -27.991095225219734 -125.06206457489009 127.55940664489751 1124.7619503421174 0.0000000000000000 0.0000000000000000 0.0000000000000000 0.0000000000000000 3.3322450690382643 3.6876107103771427 1.3558230261264035 1.1671428341745567 1614.4646128416787 1633.2472028895736 1.1644144760222759 