# For a description of the Tecplot format see the Tecplot User's guide.
#
Variables=x,y,z,s_u,s_v,s_w,s_p,mono_f_vel_u,mono_f_vel_v,mono_f_vel_w,const,u_nu,v_nu,w_nu,p_nu,x_nu,y_nu,z_nu,const,u_ref,v_ref,w_ref,vol_ref,x_ref,y_ref,z_ref,const,I1,I2,I3,J,p1,p2,p3
Zone f=fepoint, n=356, e=1130, et=brick, c=black
-67.8647 -97.8567 78.6019 -67.864681697152790 -97.856746445061148 78.601859042723689 -285.29980692338177 -7.2712838313078234e-05 3.8867985926283335e-05 0.00072446780841809355 4.2787971497136378e-18 1.9945664009313191e-09 8.0948359126864489e-11 1.5611678797711193e-05 0.00074761833304335301 1.4227030283077859e-10 -3.1938042111246104e-10 -5.3444722880964875e-10 -1.4166861794366958e-19 -65.754724465942431 -97.517594547729473 92.373562431030237 2074.8615187338191 0.0000000000000000 0.0000000000000000 0.0000000000000000 0.0000000000000000 3.3644987471928500 3.7576783233207287 1.3938201992361647 1.1804713476479516 2323.4797696673627 2126.8979344637696 1.1806003777371681 
-78.133498318651093 -131.58883553838831 63.423754116598580 -78.133498318651093 -131.58883553838834 63.423754116598595 -111.17598698875487 -0.00024788521289103086 4.0011890981585226e-07 1.1295325251657707e-05 105.56563890116485 2.2558800383265520e-09 2.4549229316050969e-10 1.7526360373665284e-05 0.00070238353821342142 9.5611350496100125e-10 3.1826152545583531e-10 -1.7406536811604857e-10 0.00032168523739832560 -75.747104543999981 -130.56019973999997 78.884476808000016 2128.8259272129790 0.0000000000000000 0.0000000000000000 0.0000000000000000 0.0000000000000000 3.3642324179581782 3.7572357870645035 1.3936457921695973 1.1804713476479511 1996.6772624827934 2048.5047689880453 1.1805246479938913 
-65.467705371321415 -122.64034685367569 54.822792279561369 -65.467705371321415 -122.64034685367571 54.822792279561376 -3.6511409034503508 0.00013160165457527456 7.8349726336725254e-05 -7.0773120097208310e-05 148.52084466986727 1.9335580914159319e-09 2.0185564331143269e-10 1.8611351109143474e-05 0.00036402964948620482 -5.1047122697956715e-10 1.6919438642771736e-10 -1.5055417122079927e-10 -0.00013481629522863674 -63.422274742800013 -121.79461816400000 71.240629883439979 1237.7701333319521 0.0000000000000000 0.0000000000000000 0.0000000000000000 0.0000000000000000 3.3648834878441458 3.7581958811130631 1.3939345083012424 1.1804713476479511 1744.0314318953992 1886.7352603639722 1.1806516717266418 
-57.996627332113263 -133.13988646737633 60.899831386642212 -57.996627332113242 -133.13988646737633 60.899831386642205 -79.342673644283835 0.00022074817991054417 -0.00010496414112404921 -4.0836973430157912e-05 -36.847207630919549 1.7434421684114907e-09 2.5306401418845326e-10 1.7844747176809506e-05 0.00048864422062172173 -1.1539457092698217e-09 1.0792008887575875e-10 7.1704374363818337e-10 0.00041015548801852456 -56.152318124399997 -132.07954718800002 76.641416164000006 2090.5778096190215 0.0000000000000000 0.0000000000000000 0.0000000000000000 0.0000000000000000 3.3626766987569492 3.7540336176808036 1.3920012207519716 1.1804713476479511 1919.3635079406040 2048.2919555429949 1.1798271871255699 
-126.58867278318891 -110.99510324226219 75.039278048692466 -126.58867278318891 -110.99510324226219 75.039278048692481 -224.39418392105648 -8.6325442753007676e-06 -9.4964034176197243e-06 0.00017117259467846208 -39.708640308545803 3.4889510169833216e-09 1.4504020207084520e-10 1.6061089841201692e-05 0.0016354803898213748 7.6464149512329729e-11 1.1457458682918107e-10 3.8162180505395218e-10 0.0016127613769206500 -122.89786571200003 -110.38740333199999 89.207425400000020 2092.2379289329847 0.0000000000000000 0.0000000000000000 0.0000000000000000 0.0000000000000000 3.3646688046571134 3.7579122476543541 1.3938745165582580 1.1804713476479509 2148.2249578471378 2150.1746696985601 1.1806258408393049 
-126.45708017826448 -129.48984755194613 79.849021833547468 -126.45708017826449 -129.48984755194618 79.849021833547482 -326.61697633998261 1.2007085895002232e-05 -0.00023552546389466055 -9.5997398356430822e-06 -509.96905100205282 3.4855976993597433e-09 2.3527646497711885e-10 1.5454352190857890e-05 0.0016506912538577655 1.3787839105416009e-11 8.5994971189475911e-10 8.0989171750985002e-11 0.0026111812363540537 -122.76981557999994 -128.50411506799998 93.481940963999989 2295.0048277193882 0.0000000000000000 0.0000000000000000 0.0000000000000000 0.0000000000000000 3.3647416757122381 3.7579388343866706 1.3938202804486923 1.1804713476479516 2701.8945976992568 2688.8445635448466 1.1806023149391947 
-90.040885828910717 -120.35212806713757 96.198127339220179 -90.040885828910675 -120.35212806713754 96.198127339220221 -157.82342329586291 0.00010410142888708713 0.00032417994859448173 -0.00027071301533667600 -1.2904301634949427e-18 2.5588972052403847e-09 1.9068990830817259e-10 1.3391951689811775e-05 0.00080494778562192838 -2.1053938879262482e-10 -1.5897901135877028e-09 8.7598318202564849e-10 2.2377836090764084e-20 -87.333945182495114 -119.55317056945796 108.01171823852533 1853.2119812635015 0.0000000000000000 0.0000000000000000 0.0000000000000000 0.0000000000000000 3.3638944105779940 3.7565258483545390 1.3932853612949498 1.1804713476479511 2138.8242594799735 2231.4399665247565 1.1803757967137540 
-125.55992657527283 -119.73564799296369 95.102100724832781 -125.55992657527283 -119.73564799296368 95.102100724832781 -120.67170972766056 -5.3853352332974937e-05 -6.4112842097331264e-05 -0.00057430021491100319 -145.51483094397193 3.4627661849029319e-09 1.8768342435748761e-10 1.3530212822132626e-05 0.00091055798555156851 -6.3504530890629614e-12 -3.0445017880994850e-12 4.7732922236477246e-10 0.00059733509773480869 -121.89681335200000 -118.94929134799999 107.03765745040002 1571.7251237143605 0.0000000000000000 0.0000000000000000 0.0000000000000000 0.0000000000000000 3.3645323155360236 3.7576146596293336 1.3937053759424360 1.1804713476479516 2104.6830736995671 2086.9197535351668 1.1805540136156456 
-45.688477565394933 -165.34289131129054 113.79438991693303 -45.688477565394926 -165.34289131129057 113.79438991693308 -19.639599128155464 3.0225135156603872e-05 2.9320521220520361e-05 -6.8022821099918289e-05 0.0000000000000000 1.4302284911948957e-09 4.1017611529525766e-10 1.1172225306665950e-05 -0.0018979452372570116 9.0868563076702021e-09 5.8731475965576579e-09 -6.8046361394612386e-09 0.0000000000000000 -44.175503749389662 -163.62432261291502 123.64986896362305 1288.7765825848380 0.0000000000000000 0.0000000000000000 0.0000000000000000 0.0000000000000000 3.3716918762443986 3.7745309759373762 1.4035912675078595 1.1831367058106064 1984.2312236613152 2122.0909077162332 1.1847313048682722 
-16.197299132212965 -145.17102419043167 127.76180251965314 -16.197299132212969 -145.17102419043164 127.76180251965319 -48.182746254477181 3.1857747046739775e-06 -6.5464984078928014e-05 -6.0745714122112879e-05 96.285812392414542 6.7974431638972987e-10 3.1177749271193994e-10 9.4102696621689574e-06 -0.00055439919967797675 6.5464109798213050e-10 -4.7797752911608455e-09 -8.7804601097665241e-09 0.0084853806791701358 -15.478227839600008 -143.86476845600004 136.06298808800005 1207.7015194609139 0.0000000000000000 0.0000000000000000 0.0000000000000000 0.0000000000000000 3.3644733926839567 3.7574342448699345 1.3935859184359232 1.1811771390865469 2050.5784894330200 2031.2451683344191 1.1804957392962359 
-45.688477565394933 -165.34289131129054 131.39065249464585 -45.688477565394962 -165.34289131129049 131.39065249464591 -50.895202451585796 3.3419380898581827e-05 -2.5541520045097278e-05 7.2255628089593246e-06 0.0000000000000000 1.4302284911948961e-09 4.1017611529525771e-10 8.9524989270728383e-06 0.00037818300163130401 5.8515507815596955e-10 -2.4542497591204457e-09 1.0805507152712362e-09 0.0000000000000000 -44.175503749389669 -163.62432261291511 139.28801968872074 2260.0113226803110 0.0000000000000000 0.0000000000000000 0.0000000000000000 0.0000000000000000 3.3636904077203806 3.7557954703085548 1.3927297091593029 1.1816049167956402 2031.2115092484596 2016.0970243290556 1.1801412983294646 
-6.3354640286754087 -163.13210962061885 121.41830616293325 -6.3354640286754078 -163.13210962061885 121.41830616293326 -107.96703515074115 5.4445265874428347e-05 4.7089549799709289e-05 0.00012639475793335426 -270.95091392122151 4.2878312012106790e-10 3.9939540563693754e-10 1.0210486543371644e-05 0.00015745969939715766 -3.8607135019062755e-10 2.0608980319127628e-09 -1.5368798309195263e-09 -0.0035136842215011000 -5.8818733370400009 -161.45872929999999 130.42539591680000 1840.5999298976626 0.0000000000000000 0.0000000000000000 0.0000000000000000 0.0000000000000000 3.3634822725371212 3.7551997190422739 1.3923347614448969 1.1804713476479500 2134.4380792597299 2096.7360944635370 1.1799735999778185 
-10.342117822562928 -107.64825999835787 180.56370670850652 -10.342117822562928 -107.64825999835786 180.56370670850652 -62.650317501060968 3.8921418376610343e-05 3.1425140668953494e-05 -8.7238930684963999e-05 -58.446377373032192 5.3074405981234928e-10 1.2871193000307812e-10 2.7494359358115616e-06 0.00073874382353109308 -4.8688435849562915e-11 1.4762945050020976e-10 -1.0730561593794128e-10 0.00025719196028744080 -9.7806680107999995 -107.10896956400003 182.98909712000000 1021.2952016557671 0.0000000000000000 0.0000000000000000 0.0000000000000000 0.0000000000000000 3.3644627824329669 3.7574535175730115 1.3936203958132454 1.1804713476479487 2002.7124114040016 1999.7486439342888 1.1805170546088475 
-18.342589227167021 -109.20841446362746 192.27135308941075 -18.342589227167021 -109.20841446362746 192.27135308941072 -68.961408148803514 -9.3903604813508736e-05 7.8473046795507796e-05 7.1880161371190481e-05 -72.831681786088112 7.3433786829113501e-10 1.3632495132753772e-10 1.2725443667704894e-06 0.00078712707467065365 2.5796170931463219e-10 1.0601115484488786e-10 -4.7113298275881127e-10 0.00054859946193127371 -17.565766725200003 -108.63723447200002 193.39391677600000 1230.2822850381203 0.0000000000000000 0.0000000000000000 0.0000000000000000 0.0000000000000000 3.3644727093024409 3.7574586747192820 1.3936148406365680 1.1804713476479516 2035.3298669164637 2032.7632638433365 1.1805142654610903 
-45.688477565394933 -120.35212806713757 166.58317765007158 -45.688477565394905 -120.35212806713756 166.58317765007141 -92.426685605775901 -1.9004982945033795e-05 2.5166521025561958e-05 8.3127498077493792e-05 0.0000000000000000 1.4302284911948959e-09 1.9068990830817256e-10 4.5130461820974679e-06 0.0012420162174025307 5.6271145156900752e-10 -6.3623235435644586e-10 1.5798572597533260e-09 0.0000000000000000 -44.175503749389591 -119.55317056945772 170.56432113891603 1872.3464537223574 0.0000000000000000 0.0000000000000000 0.0000000000000000 0.0000000000000000 3.3639088764027156 3.7563528766620506 1.3930771681697973 1.1804713476479516 2062.6635874954050 2071.9824453348670 1.1802893028453769 
-9.8808729892506140 -125.29714204743529 187.17493533752963 -9.8808729892506140 -125.29714204743529 187.17493533752963 -90.488390674979513 5.7777627682784010e-05 -0.00028688948217923629 -0.00014579423742529845 -102.03644675877828 5.1900661546255823e-10 2.1480706102749991e-10 1.9154452814973415e-06 0.00075342632486237731 2.4651922913362382e-10 7.2589359680170313e-10 -1.4380152264992152e-10 0.00056533908182140446 -9.3318398883999993 -124.39710846400000 188.86462832000004 1016.3527334425750 0.0000000000000000 0.0000000000000000 0.0000000000000000 0.0000000000000000 3.3644922510398638 3.7574895541100308 1.3936256601440093 1.1804713476479480 2139.1143779543513 2137.4507982573341 1.1805184859168867 
-45.688477565394933 -165.34289131129054 96.198127339220179 -45.688477565394933 -165.34289131129057 96.198127339220207 -66.189707303126482 -0.00010650913844632547 -0.00020792902345815727 1.5477637739929562e-05 2.1769313264906374e-17 1.4302284911948959e-09 4.1017611529525771e-10 1.3391951689811776e-05 0.00044192481758525249 9.1894463003467270e-10 1.3649549586899822e-09 3.8138208247104206e-10 -8.2475406533199218e-19 -44.175503749389662 -163.62432261291499 108.01171823852535 1450.3671205666894 0.0000000000000000 0.0000000000000000 0.0000000000000000 0.0000000000000000 3.3646881299131386 3.7577055188189701 1.3936409670874543 1.1813130233978912 1829.8734157458971 2016.7887753404989 1.1805239190974748 
-63.136324628527703 -162.61771190736002 71.433370036521126 -63.136324628527724 -162.61771190736002 71.433370036521154 -331.48631949059978 -9.6260077507974516e-05 -0.00046597061861089803 -0.00010519590470693801 121.22265152895170 1.8742382090763954e-09 3.9687253483577933e-10 1.6515966507313348e-05 0.0022242515298691434 1.0496243012383437e-10 2.8708460234634858e-09 7.1415658910757402e-10 0.0011109946707465121 -61.153654769600031 -160.95484587600001 86.002782780800032 1645.6757988676138 0.0000000000000000 0.0000000000000000 0.0000000000000000 0.0000000000000000 3.3559445409423589 3.7394184868558740 1.3840784710727940 1.1787503830137795 2478.4297303086214 2457.7800579751211 1.1764700698347457 
-45.747254601414880 -169.81151793047007 68.365595046724877 -45.747254601414866 -169.81151793047005 68.365595046724849 -636.62963979121582 0.00027549123322549902 -0.00076796260255023124 -0.00013724165866351825 -412.26136415579907 1.4317232954752512e-09 4.3198489230178433e-10 1.6902958979159166e-05 0.0023741439198977075 -3.3825228127372576e-10 2.3856694625493142e-09 5.8789690960541075e-10 0.0026748060755221090 -44.232698507600013 -168.00161050399998 83.276389748800028 1737.4139093181343 0.0000000000000000 0.0000000000000000 0.0000000000000000 0.0000000000000000 3.3654243954478549 3.7595249990273256 1.3947343266320711 1.1804713476479509 3028.9391031817727 2995.7639414074388 1.1809893993095850 
-45.688477565394933 -187.83827293336702 96.198127339220179 -45.688477565394969 -187.83827293336705 96.198127339220235 -495.30633088266649 1.2489095256310579e-05 -0.00027729326686130000 -0.00068679842051961476 -1.2972031040264337e-18 1.4302284911948959e-09 5.1990522997868993e-10 1.3391951689811776e-05 0.0021663266137789215 -2.7829038965508663e-10 1.1440391363838747e-09 1.7183190041785409e-09 6.2492912624775238e-20 -44.175503749389676 -185.65989863464350 108.01171823852533 1616.4576808433910 0.0000000000000000 0.0000000000000000 0.0000000000000000 0.0000000000000000 3.3627065832819047 3.7537105339509678 1.3916270777795159 1.1801198339892682 2848.3621986823714 2886.0542933518695 1.1796717172181990 
-90.040885828910717 -142.84750968921406 131.39065249464585 -90.040885828910675 -142.84750968921404 131.39065249464591 -82.556632499598066 -4.1378196552099569e-06 3.2417472437267803e-06 2.5779130780935311e-05 0.0000000000000000 2.5588972052403851e-09 3.0041946708081468e-10 8.9524989270728366e-06 -0.00017747600622697798 4.9346088806904075e-10 -5.7354746676055966e-10 1.6930383400834503e-09 0.0000000000000000 -87.333945182495100 -141.58874659118649 139.28801968872074 1877.7986991733408 0.0000000000000000 0.0000000000000000 0.0000000000000000 0.0000000000000000 3.3700113415868143 3.7697894353620844 1.4004447418070687 1.1826388682146445 2061.1944599509666 2057.4069637507623 1.1834070776679930 
-67.864681697152832 -165.34289131129054 131.39065249464585 -67.864681697152761 -165.34289131129046 131.39065249464593 -66.237652375111793 -1.9328664657652987e-05 4.5622616054266402e-05 5.7795624346500252e-05 1.7464392276047338e-18 1.9945664009313191e-09 4.1017611529525776e-10 8.9524989270728383e-06 -0.0022324901032231897 -1.5454635110448506e-09 -7.0299548763711652e-10 -9.2326390056008347e-09 -7.0862223023619634e-20 -65.754724465942374 -163.62432261291517 139.28801968872077 2018.1238718776010 0.0000000000000000 0.0000000000000000 0.0000000000000000 0.0000000000000000 3.3644390965674225 3.7575672741653356 1.3937642412208366 1.1826958302430921 2044.3259333679312 2022.0632204628596 1.1805739473536172 
-90.040885828910717 -165.34289131129054 113.79438991693303 -90.040885828910675 -165.34289131129054 113.79438991693311 -109.00230003993953 -9.0478406925691097e-05 -2.5454577332121435e-05 2.6854262594626291e-05 0.0000000000000000 2.5588972052403847e-09 4.1017611529525766e-10 1.1172225306665950e-05 0.0019201142768902530 1.5925722844996529e-09 3.3547511851383493e-09 1.0958995317843868e-08 0.0000000000000000 -87.333945182495114 -163.62432261291505 123.64986896362312 1549.0027140339625 0.0000000000000000 0.0000000000000000 0.0000000000000000 0.0000000000000000 3.3652042176441861 3.7588216511394674 1.3942440719935170 1.1810841713857372 2078.2726512804143 2242.9577361394627 1.1807804234913639 
-90.040885828910717 -142.84750968921406 113.79438991693303 -90.040885828910675 -142.84750968921406 113.79438991693311 -83.121040231646688 -6.8109297827548425e-05 -4.2240862627181155e-05 9.8913503401092573e-05 0.0000000000000000 2.5588972052403847e-09 3.0041946708081468e-10 1.1172225320876804e-05 -0.0024649390340512499 3.4325149080642802e-09 -4.5050117778614945e-09 5.2802784446584587e-12 0.0000000000000000 -87.333945182495086 -141.58874659118649 123.64986896362313 1389.1126189879024 0.0000000000000000 0.0000000000000000 0.0000000000000000 0.0000000000000000 3.3667760668085696 3.7636270441683126 1.3975210092805477 1.1825106863779968 2009.4571747497157 2159.3453641578462 1.1821825142603892 
-46.738884704180357 -110.94029037117723 29.625309416911364 -46.738884704180357 -110.94029037117723 29.625309416911364 -452.44725147591578 0.00017541239400272713 5.7572996479490371e-05 -0.00022675807503614445 -385.55358706386863 1.4569548900666973e-09 1.4477730125861399e-10 2.1789953216000413e-05 0.0027128031770420583 -4.8912836996953868e-10 -2.1012778045914778e-11 7.6977175628974713e-10 0.0030130149011902744 -45.197633928000002 -110.33371083599998 48.847122559999995 1069.0094105005942 0.0000000000000000 0.0000000000000000 0.0000000000000000 0.0000000000000000 3.3643893952318753 3.7572929030376794 1.3935328405686052 1.1804713476479516 2767.5211559735080 2768.1017561542903 1.1804799452335941 
-58.994813448361690 -99.197820992276320 26.676026833200840 -58.994813448361654 -99.197820992276320 26.676026833200844 -382.80991066417369 4.4070030084505718e-05 5.8153480158476324e-05 -0.00013719734536912952 -228.57904725741713 1.7688454034825442e-09 8.7492013634005161e-11 2.2161998153080734e-05 0.0028305612960245249 -4.2309708286892318e-11 -1.8623766936977368e-10 5.4845379652865930e-10 0.0028309800136778734 -57.123633070400032 -98.831257531200038 46.226036100800002 1475.5774262919704 0.0000000000000000 0.0000000000000000 0.0000000000000000 0.0000000000000000 3.3643725085209599 3.7572586687948188 1.3935155975101412 1.1804713476479516 2536.0481593505106 2536.6935170107099 1.1804726291129619 
-62.094258566128943 -106.09452592183423 39.092611300844680 -62.094258566128936 -106.09452592183423 39.092611300844673 -273.66929047807037 -9.1095870639115064e-05 0.00013287781008178114 -8.1042434648556785e-05 -173.90721583321695 1.8477198659994087e-09 1.2113487990461635e-10 2.0595675760404223e-05 0.0018785317381150868 2.5573944992709596e-11 -1.2238031011024146e-09 1.3318890913913537e-09 0.00024906860061304608 -60.139641125599979 -105.58699381199996 57.260903223199996 1724.6135661994952 0.0000000000000000 0.0000000000000000 0.0000000000000000 0.0000000000000000 3.3643262463647776 3.7571670337645879 1.3934706899669747 1.1804713476479514 2451.1565305568806 2448.6779655132514 1.1804534911695721 
-20.233753502661475 -88.259030961653934 39.585650047219545 -20.233753502661475 -88.259030961653934 39.585650047219538 -343.53810438945527 1.6257683657854947e-05 -0.00013322830353764924 -0.00026826501615774545 -305.49581263209990 7.8246265022841034e-10 3.4124258974088661e-11 2.0533480103779315e-05 0.0022681888760121261 -4.7818816121697621e-11 3.0880176954906030e-10 9.3186016554543104e-10 0.0023790534374829755 -19.406020858399991 -88.116056368799974 57.699076624800000 1439.6451283969650 0.0000000000000000 0.0000000000000000 0.0000000000000000 0.0000000000000000 3.3643250049509779 3.7571567283500329 1.3934610805679655 1.1804713476479516 2502.1774303367488 2504.2570031186228 1.1804495171528586 
-60.693444422997217 -180.61914037727934 63.278269608139709 -60.693444422997224 -180.61914037727928 63.278269608139695 -1137.9701223097868 -1.4276146376868876e-05 -3.7542977878877320e-05 -0.00016637813548718268 -1588.8574700355498 1.8120686062772502e-09 4.8470139013545577e-10 1.7544712896722103e-05 0.0039021762539593135 3.3755268886248374e-10 3.8773936871454676e-11 6.5760347037070589e-10 0.0054214810976268004 -58.776536899199989 -178.58832514800000 78.755181813599989 1584.4809985467919 0.0000000000000000 0.0000000000000000 0.0000000000000000 0.0000000000000000 3.3656601506625208 3.7599716457079064 1.3949445590143779 1.1804713476479511 4194.1134859966251 4197.2799531952414 1.1810790165822413 
-76.814256475844033 -187.10622450484468 55.931282442084978 -76.814256475844019 -187.10622450484468 55.931282442084978 -918.47555745066927 0.00071334242011806940 -0.00066095382751221645 -1.9327893542489511e-05 -792.31608104143641 2.2223104467755661e-09 5.1633963771280378e-10 1.8471517726936781e-05 0.0038540077743090869 -1.4664185710952672e-09 9.2108533141196499e-10 -1.6993957862225609e-11 0.0038367654517290927 -74.463376691600018 -184.94281327599995 72.225767276240006 1182.3928641350060 0.0000000000000000 0.0000000000000000 0.0000000000000000 0.0000000000000000 3.3651823046324192 3.7589848336035341 1.3944347265043844 1.1804713476479511 3422.3586133424101 3421.9816875548490 1.1808622512913345 
-71.956892860935454 -214.30787839433708 72.096666659403496 -71.956892860935454 -214.30787839433700 72.096666659403482 -1151.2216706814127 -3.6491053438928731e-05 5.0306477776584865e-05 -0.00021110537082728024 -1229.7144177693046 2.0986953286339372e-09 6.4903571406205174e-10 1.6432293222123917e-05 0.0039865127066481551 -1.0186205462794082e-10 -8.7417881481038941e-11 5.5184466150848503e-10 0.0038157497616192514 -69.736773305200003 -211.58846536000007 86.592267764799999 1391.6778601551057 0.0000000000000000 0.0000000000000000 0.0000000000000000 0.0000000000000000 3.3636281362066116 3.7556724315097396 1.3926712684136857 1.1804713476479507 4134.5984422018082 4138.7452967213976 1.1801147566905412 
-89.506396284274530 -209.90330006120934 76.277804032368323 -89.506396284274530 -209.90330006120936 76.277804032368309 -814.12987632550562 0.00070072023330081351 -0.00038220510334961271 -2.2733377699556222e-05 -802.03924991422662 2.5452929763858378e-09 6.2755689533844361e-10 1.5904852766368549e-05 0.0034838643233285130 -1.4581090178519061e-09 8.1415943327130137e-10 -8.0049424714005840e-12 0.0041531739523495157 -86.813844096400004 -207.27391660800001 90.308128229600001 1955.0875990986240 0.0000000000000000 0.0000000000000000 0.0000000000000000 0.0000000000000000 3.3653045727704387 3.7592266907858778 1.3945545165640036 1.1804713476479509 3327.5943518434456 3331.7049979202834 1.1809137854990583 
-76.722009398522630 -215.32555792392142 87.922591271228313 -76.722009398522630 -215.32555792392139 87.922591271228313 -992.49586051840265 -0.00051471976296269190 0.00016236968922977025 0.00058280642342783755 -1311.2578562946892 2.2199612148554597e-09 6.5400684867711334e-10 1.4435890740571725e-05 0.0033278740014043746 6.2851118203851230e-10 -3.0705125510560832e-10 -9.8121535967553602e-12 0.0035935936870926085 -74.373612905599998 -212.58534351999998 100.65708370800000 988.41240310934302 0.0000000000000000 0.0000000000000000 0.0000000000000000 0.0000000000000000 3.3639608233093279 3.7563544915855411 1.3930207382757789 1.1804713476479500 4322.7830829210188 4324.5241228975419 1.1802638035159896 
-67.864681697152832 -187.83827293336702 96.198127339220164 -67.864681697152761 -187.83827293336705 96.198127339220235 -466.06938853288341 3.2297576693588065e-05 -0.00034446865135879916 -0.00028147762432618193 5.2613867034414158e-18 1.9945664009313195e-09 5.1990522997868993e-10 1.3391951689811780e-05 0.0027849074579530094 -8.3945643008261315e-11 -4.3917447289678982e-11 6.4782334419097272e-11 -4.0130441405777676e-19 -65.754724465942374 -185.65989863464350 108.01171823852535 1808.0980320372519 0.0000000000000000 0.0000000000000000 0.0000000000000000 0.0000000000000000 3.3647444179119352 3.7581142998652703 1.3940018319503675 1.1805234079935905 2696.8279454440053 2677.6922736631245 1.1806769210805681 
-86.061163965455307 -211.01268574049357 97.338165163360159 -86.061163965455307 -211.01268574049351 97.338165163360159 -584.76683453734790 0.00092727739703112727 -0.00061623378703103344 -0.0011917623664211478 -623.43426572826945 2.4576182200419790e-09 6.3297567187703407e-10 1.3248138643007225e-05 0.0025505238858810368 -2.3480141180113405e-09 1.4219057289425026e-09 1.8821902871162969e-09 0.0024218675484560756 -83.461357431600007 -208.36062644399999 109.02489266960001 1287.0831768928649 0.0000000000000000 0.0000000000000000 0.0000000000000000 0.0000000000000000 3.3647627888559901 3.7580882333042109 1.3939570993630137 1.1804713476479500 3165.2348324759432 3194.0241213549862 1.1806586947844135 
-42.999425301873934 -131.06418436847548 48.649897103511371 -42.999425301873927 -131.06418436847548 48.649897103511378 -244.41127609223201 9.4239893271601819e-05 -6.2747773338637418e-05 -6.2623078935645956e-05 -296.58885743630526 1.3617967864476557e-09 2.4293744793624228e-10 1.9390047050649173e-05 0.0015452659160014419 -4.2337510571850500e-10 2.3401092761280132e-10 3.8568949119172437e-10 0.0020594236337167574 -41.558840772800004 -130.04627243999997 65.754654395919971 2180.9238908936368 0.0000000000000000 0.0000000000000000 0.0000000000000000 0.0000000000000000 3.3646771567866742 3.7578826312653439 1.3938342896706997 1.1804713476479511 2391.9435530020482 2376.3276425482295 1.1806078084483356 
-23.709394765863465 -135.55481507613862 37.568048486688632 -23.709394765863465 -135.55481507613862 37.568048486688632 -399.20411529034288 -2.8101006196796244e-05 2.9635809838548245e-05 8.1986289861571378e-06 -463.61765405359444 8.7091112099813017e-10 2.6484747728261482e-10 2.0787995708815284e-05 0.0024347064183813916 -7.8492044875958609e-11 -1.4652227341689496e-10 1.3525761864984993e-10 0.0022489995496206209 -22.788097858800000 -134.44511465599999 55.905993737599999 935.86986824075086 0.0000000000000000 0.0000000000000000 0.0000000000000000 0.0000000000000000 3.3641597750235954 3.7568037315519160 1.3932725829163695 1.1804713476479505 2660.5432349853836 2661.6241657123014 1.1803697981480659 
-11.621664609670614 -104.06855787904018 44.547353896556778 -11.621664609670610 -104.06855787904016 44.547353896556757 -368.22793322823736 4.1286678355917843e-05 -0.00013676418347851799 -0.00011284585056119074 -344.25533074632426 5.6330440312279961e-10 1.1125167453940319e-10 1.9907573044264378e-05 0.0022501408622586736 -3.1376496238136980e-11 3.4997114263839497e-10 6.5556825663755863e-10 0.0019666976494824373 -11.025769398400001 -103.60243655599999 62.108642139439993 1284.9349949311236 0.0000000000000000 0.0000000000000000 0.0000000000000000 0.0000000000000000 3.3642626200210590 3.7570294515021434 1.3933963269389726 1.1804713476479511 2633.3664613968017 2636.2715205263676 1.1804220197405648 
-30.087243386730954 -142.00586836536840 53.506986879876983 -30.087243386730954 -142.00586836536840 53.506986879876983 -293.46294191071672 1.3814275250456676e-05 5.5353197794712626e-05 -0.00016287946883738254 -197.97184745469625 1.0332109612321005e-09 2.9631519460338041e-10 1.8777336805442246e-05 0.0017452329476982985 -1.2201955425732159e-10 4.7329192047029895e-11 4.6611951327422636e-10 0.0026223747809171827 -28.994254794799993 -140.76430841599998 70.071247290159988 2176.9829965296321 0.0000000000000000 0.0000000000000000 0.0000000000000000 0.0000000000000000 3.3649766857086867 3.7585676301823989 1.3942234069793906 1.1804713476479500 2449.6465237681773 2455.7358090748789 1.1807720023133295 
-106.55797331759477 -196.40745126379457 80.477425860887791 -106.55797331759480 -196.40745126379460 80.477425860887806 -340.16253520345987 -3.0471658901220872e-07 -8.2595848779546421e-05 -0.00014215364475112806 -520.15577839500861 2.9792196487576916e-09 5.6170734730187622e-10 1.5375080526069951e-05 0.0025973892032205123 3.5077592575542455e-10 -1.7598915525696274e-10 1.9414073541536384e-09 0.0019078245469877713 -103.40639267600000 -194.05392295999994 94.040416199999996 2662.2783756828549 0.0000000000000000 0.0000000000000000 0.0000000000000000 0.0000000000000000 3.3639904093167519 3.7564267383953238 1.3930635813441794 1.1804713476479505 2521.2762538464121 2524.5463987332214 1.1802813450686425 
-85.081946833463036 -163.99234588588055 62.205616502390889 -85.081946833463022 -163.99234588588061 62.205616502390903 -423.17347182077441 -4.5663432407440989e-05 0.00011173946249752871 -2.0490000547576309e-05 -724.52248022499089 2.4326954894959840e-09 4.0359693365132893e-10 1.7680025518274075e-05 0.0029689696697934075 9.9248060962135797e-10 7.5590430093281827e-11 8.6147994453586583e-10 0.0037158558828322375 -82.508500824799995 -162.30138233600007 77.801893530400037 2229.3857910936085 0.0000000000000000 0.0000000000000000 0.0000000000000000 0.0000000000000000 3.3653095333646617 3.7592040334338508 1.3945247982182818 1.1804713476479507 2624.3265362811503 2634.0982066431893 1.1809004727178090 
-29.056331673840688 -125.97597347265673 118.19345556136123 -29.056331673840674 -125.97597347265673 118.19345556136116 -21.698201040269741 8.0456024287237799e-06 -2.8303637721201208e-05 3.7365848898087511e-05 -4.3456327771027148e-19 1.0069760580933007e-09 2.1812307515745033e-10 1.0617293725090349e-05 0.00031228785356521641 2.8829741260899197e-09 2.8947801010722811e-09 3.5380271667845209e-10 1.0460963012365900e-20 -27.991095225219734 -125.06206457489009 127.55940664489751 1124.7619503421174 0.0000000000000000 0.0000000000000000 0.0000000000000000 0.0000000000000000 3.3613179662164763 3.7500742010765258 1.3893465794824016 1.1805246172451840 1781.9286723655912 1786.4992633671793 1.1787142327620259 