# For a description of the Tecplot format see the Tecplot User's guide.
#
Variables=x,y,z,s_u,s_v,s_w,s_p,mono_f_vel_u,mono_f_vel_v,mono_f_vel_w,const,u_nu,v_nu,w_nu,p_nu,x_nu,y_nu,z_nu,const,u_ref,v_ref,w_ref,vol_ref,x_ref,y_ref,z_ref,const,I1,I2,I3,J,p1,p2,p3
Zone f=fepoint, n=1339, e=6475, et=brick, c=black
-60.2951 -70.2818 173.625 -60.295073198966250 -70.281752173681511 173.62493281109440 17.939616484741922 2.2497087460008352e-06 2.9627493116944830e-06 -3.0345000607577240e-06 13.865319989321012 -6.2300975489648636e-10 1.8506973731291506e-11 -1.2675784475391085e-06 -0.0019146723188013504 -1.1461263958027472e-11 1.2165815161669122e-11 -2.2225002390990224e-11 -0.0019198128380090750 -58.668039002000000 -70.473359259200009 176.35421013599998 215.13583165143561 0.0000000000000000 0.0000000000000000 0.0000000000000000 0.0000000000000000 3.3050513324516833 3.6304018951252486 1.3257335790894804 1.1510203835381503 1065.9724668193660 1065.9724716534904 1.1514052710733316 
-66.738205956341318 -76.328577347935692 182.10024930956064 -66.738205956341304 -76.328577347935692 182.10024930956067 18.524938941104129 -1.9446379080517217e-05 -6.1655044488464293e-08 -3.0938052424998486e-06 16.920277438820651 -6.7970085115831590e-10 8.3153484098374975e-12 -8.9369843792042047e-07 -0.0018964106630269457 -3.3247693807056699e-11 1.7264478581656508e-11 -2.8679675910543918e-11 -0.0018996253189069367 -64.963123215600007 -76.414687385200040 184.02450960799996 253.42820447565578 0.0000000000000000 0.0000000000000000 0.0000000000000000 0.0000000000000000 3.3062899144291724 3.6331288011076506 1.3272310218418504 1.1510203835381492 1066.0291581949607 1066.0291138196296 1.1520567672011190 
-71.549221551166269 -71.412262813619222 174.60001156302840 -71.549221551166269 -71.412262813619222 174.60001156302840 15.667611555102704 -3.3460907094125742e-06 1.4366299246214650e-06 -4.0741015179889779e-06 11.015714697854280 -7.2203321099806317e-10 1.6597168084331318e-11 -1.2245638281171980e-06 -0.0019277963467007944 -1.1245615430961702e-11 9.3120696641437712e-12 -2.4827168981246714e-11 -0.0019295313475845043 -69.663592608799988 -71.584146237200002 177.23667228800005 218.29881668600640 0.0000000000000000 0.0000000000000000 0.0000000000000000 0.0000000000000000 3.3069552716237776 3.6344846190919875 1.3279216220212595 1.1510203835381514 1074.0771773962863 1074.0773832310408 1.1523570147115103 
-58.756690952296410 -87.841527082776636 168.45002992647190 -58.756690952296381 -87.841527082776679 168.45002992647190 29.909029200853780 -2.3751563152097577e-06 1.0894763426658742e-05 1.5291786445568289e-05 0.0000000000000000 -6.0947080715578750e-10 -1.1089129614560989e-11 -1.4958640583984106e-06 -0.0019159513081765589 -9.1045619400756224e-12 1.5710523583479867e-11 -3.1821251331737674e-11 0.0000000000000000 -57.165005282198301 -87.726774323660578 171.67083873969227 259.76550921814646 0.0000000000000000 0.0000000000000000 0.0000000000000000 0.0000000000000000 3.3006933636185742 3.6207763461520446 1.3204314563844408 1.1498107331264578 1031.2482126034984 1031.2483643276250 1.1491005885339627 
-91.236338876289324 -83.415454853776794 108.16612204409206 -91.236338876289267 -83.415454853776751 108.16612204409206 69.317350954280244 2.0407925719722442e-05 1.3102628703221634e-05 -1.2451465669511039e-05 0.0000000000000000 -8.9524265778351264e-10 -3.6313174689439616e-12 -4.1552276535128385e-06 -0.0023066976701128197 1.0387082678437195e-10 -2.4478124800096459e-11 -9.5443525381319349e-11 0.0000000000000000 -88.898344731952406 -83.377922378373768 117.11292023788836 283.91631954144174 0.0000000000000000 0.0000000000000000 0.0000000000000000 0.0000000000000000 3.3069408823782327 3.6344983048496000 1.3279476872313976 1.1524016490915279 966.68983731498042 967.58819899215337 1.1523660061572090 
-100.13823220460209 -66.646673477817956 98.340034981487761 -100.13823220460209 -66.646673477817970 98.340034981487761 37.673771453603266 1.0380985118513924e-05 2.1942745473466436e-05 -7.0134313650913201e-05 27.928873237851896 -9.7356311901108938e-10 2.4634072559592823e-11 -4.5886955426510676e-06 -0.0024210771033010502 5.7844090483286394e-12 3.0558782426346191e-11 -1.9914702172068257e-10 -0.0024226563122245262 -97.595692787999965 -66.901700632800015 108.22015140479995 322.25788568967050 0.0000000000000000 0.0000000000000000 0.0000000000000000 0.0000000000000000 3.3038580137545632 3.6278452670656658 1.3243658585516660 1.1510203835381507 1024.5128155303005 1025.0065117063903 1.1508107907093765 
-81.783318058608131 -67.287605147482296 98.776848561896969 -81.783318058608089 -67.287605147482296 98.776848561896983 29.543177935042156 -5.2864150701624717e-06 1.7278851374599353e-05 -2.5527103112739834e-05 0.0000000000000000 -8.1207629509805191e-10 2.3549384664534045e-11 -4.5694259576123395e-06 -0.0024231141936544949 -5.7741698625665898e-12 -2.6727028502643286e-11 -1.8019194721911422e-10 0.0000000000000000 -79.662532843379708 -67.531450170133141 108.61547480962874 295.38956150422752 0.0000000000000000 0.0000000000000000 0.0000000000000000 0.0000000000000000 3.3033325372317734 3.6266219294567041 1.3236588751645000 1.1506560525912894 1037.9539196741719 1031.0541994730909 1.1505033900088606 
-96.947000037951369 -81.849719127605340 98.788818961764733 -96.947000037951369 -81.849719127605340 98.788818961764733 52.088369697876402 -6.5774876599606314e-06 2.7540577609606782e-05 -4.6898554489100615e-05 0.0000000000000000 -9.4548424645068962e-10 -9.9231733940996492e-13 -4.5688978964619773e-06 -0.0024425788438793418 -2.1127562866316993e-11 -2.6931400840616576e-11 -2.1913265416341348e-10 0.0000000000000000 -94.477787882002133 -81.839503548705352 108.62630821647583 293.80807890400462 0.0000000000000000 0.0000000000000000 0.0000000000000000 0.0000000000000000 3.3054657076566794 3.6310719742337101 1.3259802278064639 1.1513107521610904 988.60623081241658 989.03445986319252 1.1515122982518375 
-48.623944304239735 -126.78543883752560 131.94517415578693 -48.623944304239764 -126.78543883752570 131.94517415578687 45.171792611298777 1.7623647455636217e-05 -7.3522502621770994e-06 -9.3605284677002951e-06 0.0000000000000000 -6.5651000001666743e-07 1.8348131024592631e-07 -5.1852788533289897e-06 -0.0020583870341712015 -2.3757971283773772e-11 5.2060031288843016e-12 -1.3727076201419889e-10 0.0000000000000000 -47.292355390977058 -125.96433165720771 138.67232254046354 244.31333887135355 0.0000000000000000 0.0000000000000000 0.0000000000000000 0.0000000000000000 3.3030436809618671 3.6252806977536811 1.3225787008593592 1.1504477743616044 1010.9983045318914 1010.9984162203262 1.1500342677199267 
-35.244739561392016 -141.48432657568719 132.56830277701999 -35.244739561392038 -141.48432657568719 132.56830277702008 46.347368338383639 3.2938845875459369e-06 1.1477653412223327e-05 -7.4477880797549771e-07 0.0000000000000000 -2.9055878600370796e-07 -1.3662133032469964e-09 -3.7882814139837648e-06 -0.0019177838204955974 3.6481120136035138e-11 -1.8853826409195971e-11 -1.6643475538127926e-10 0.0000000000000000 -34.196989160350306 -140.43319657724166 139.21506628885933 210.16870282748488 0.0000000000000000 0.0000000000000000 0.0000000000000000 0.0000000000000000 3.3035279708628744 3.6269715170989985 1.3238140651734083 1.1507307824519339 1008.1423735245151 1008.1423606239076 1.1505710797568154 
-31.923346320377259 -128.46462716048899 136.47027858075126 -31.923346320377270 -128.46462716048893 136.47027858075126 38.371350843476272 4.3237043611936256e-06 -3.9931301281899903e-06 1.1431241476546989e-05 0.0000000000000000 -3.7338343528148249e-10 -7.9562800792132306e-11 -2.9066184303871978e-06 -0.0018779936896624976 -6.5148783792754549e-11 2.9269039427295912e-12 -1.0860234891842715e-10 0.0000000000000000 -30.948229910445860 -127.64113600963313 142.72864290474456 229.21992526850030 0.0000000000000000 0.0000000000000000 0.0000000000000000 0.0000000000000000 3.3000765953496236 3.6192851997071509 1.3195503573970278 1.1495742593038953 1014.1845757412748 1014.1845782629066 1.1487166071764749 
-49.767041348928686 -131.80356649714489 140.99597825116035 -49.767041348928686 -131.80356649714489 140.99597825116041 51.270304134792177 1.2996703969819609e-05 1.4302629434797093e-05 -7.9703644751051989e-06 0.0000000000000000 -6.1881507020326571e-07 2.7886218379950823e-07 -4.4978992762893635e-06 -0.0018895067293734659 -6.3995177267246260e-12 1.6071435890071369e-10 -2.5494931689711452e-10 0.0000000000000000 -48.406431667502837 -130.90513559487593 146.85896726379221 225.63426853136377 0.0000000000000000 0.0000000000000000 0.0000000000000000 0.0000000000000000 3.3052189100447391 3.6301468749612704 1.3252864457416438 1.1513808464918480 1003.2519623587760 1003.2520001671267 1.1512105371783721 
-54.480062303472288 -84.934062860796828 64.552852413823800 -54.480062303472309 -84.934062860796814 64.552852413823771 50.924031484660773 4.5393007175957783e-06 9.5029096803313860e-05 -1.5083246123484311e-05 0.0000000000000000 7.7709997363601702e-09 -1.2796506389795310e-06 -7.1202224048663339e-06 -0.0035827770356790961 -4.3781053621408428e-10 -4.1194209824142797e-09 -3.7841919474261831e-11 0.0000000000000000 -53.009977022357148 -84.940192361847963 77.707205907375524 356.07450292316213 0.0000000000000000 0.0000000000000000 0.0000000000000000 0.0000000000000000 3.3140315965067235 3.6498662898210048 1.3362575147191800 1.1541654658324974 1000.8840859804925 1000.8812939561541 1.1559473178531343 
-41.478470578852267 -85.703144373054130 53.272200663519179 -41.478470578852246 -85.703144373054144 53.272200663519179 -32.556315379942269 2.5382684881283500e-05 1.9785383711730244e-05 -7.2535643807549260e-05 0.0000000000000000 1.3332694596076184e-07 -1.2993879698141929e-07 -6.5987946981319401e-06 -0.0032537124645717805 -1.1385183064606824e-10 -2.0509894329761538e-10 5.5756429252365140e-10 0.0000000000000000 -40.313282635619565 -85.652866469445740 67.489144002613742 334.72004880612383 0.0000000000000000 0.0000000000000000 0.0000000000000000 0.0000000000000000 3.2993043284946855 3.6182112420393184 1.3192697121753347 1.1497256490036596 1135.9486597956636 1135.9536470193345 1.1485821039004793 
-44.125701844762794 -94.298559481878982 70.737200129861293 -44.125701844762794 -94.298559481878954 70.737200129861307 57.721903731077902 7.3888706680002732e-05 -5.7358398726956817e-07 -1.2178694674534374e-05 0.0000000000000000 -2.0923097948685710e-07 -1.9402487689496955e-07 -7.4202855843688559e-06 -0.0033782436155679512 -1.4290588660393254e-09 -2.7947401807224396e-11 -2.2295966393757522e-09 0.0000000000000000 -42.930125987095458 -94.071309017270835 83.274511392489799 283.94561953274422 0.0000000000000000 0.0000000000000000 0.0000000000000000 0.0000000000000000 3.3170511794911923 3.6567443140732658 1.3401516601638326 1.1541169652611543 994.28455075921727 994.28285371190191 1.1576533157631739 
-46.250660834115322 -99.284104925805664 53.915871386875693 -46.250660834115322 -99.284104925805721 53.915871386875708 33.558715516682959 0.00015792736439453674 6.5296631763552106e-06 -0.00012703779604627145 0.0000000000000000 -4.9943993385426200e-10 -3.0364821768102950e-11 -6.5484225721945677e-06 -0.0034264158014961411 4.5148385289880127e-10 -5.9885661495532899e-10 1.8929647485104069e-09 0.0000000000000000 -44.946335306532468 -98.969717126470769 68.015559797458934 339.42980011114588 0.0000000000000000 0.0000000000000000 0.0000000000000000 0.0000000000000000 3.3123336282070412 3.6469689909879857 1.3350930617110131 1.1533886822194717 998.33573486989894 998.33472236657792 1.1554547732142710 
-36.694969858506376 -101.18494059243325 61.993929952465052 -36.694969858506390 -101.18494059243326 61.993929952465074 2.3320482143035077 6.8795561251635398e-05 1.2135387865814909e-05 -3.8340648316998389e-05 0.0000000000000000 -2.1174320512323844e-07 6.3751838280329718e-08 -6.6459378593305262e-06 -0.0033654051643868623 -9.3906667558751384e-10 3.8199402137878850e-10 -3.4130227064521476e-10 0.0000000000000000 -35.672109309640206 -100.83293553867907 75.360366609178811 338.44965823895870 0.0000000000000000 0.0000000000000000 0.0000000000000000 0.0000000000000000 3.2970238037142492 3.6131325971732062 1.3164560674797228 1.1500351208649777 1073.0932959858428 1073.0931276458441 1.1473653458679260 
-50.374883856765130 -112.53769580376452 51.007175847643708 -50.374883856765116 -112.53769580376455 51.007175847643694 37.033735963792203 0.00014032330512704093 -3.0749096947021523e-05 -4.5872476476579123e-05 89.893231934040529 -5.3572801750334530e-10 -5.2711834896967951e-11 -6.6767367314923831e-06 -0.0033432818882114758 -1.9434510947377365e-11 -5.3533205915556939e-10 5.3416035036585532e-10 -0.0035762062001784482 -48.975793059600008 -111.99207679200002 65.383142959360015 326.57209562220959 0.0000000000000000 0.0000000000000000 0.0000000000000000 0.0000000000000000 3.3027530621994856 3.6250706257313587 1.3226691590633399 1.1517432293536520 998.81844188165985 998.81749453829423 1.1500692688265755 
-26.080395541529729 -111.00067442600412 53.312674026453301 -26.080395541529725 -111.00067442600405 53.312674026453337 -61.017324530241531 2.3535529163076758e-05 -3.7441508943222042e-06 -4.9178122617488688e-05 0.0000000000000000 -3.2197267074707270e-10 -5.0113913019345091e-11 -6.5750320104029925e-06 -0.0031484475659553889 -7.7197428538205522e-11 1.5410461065814900e-10 -3.0644184442094506e-11 0.0000000000000000 -25.239536857883341 -110.48187134057846 67.469656361758609 349.35568362690350 0.0000000000000000 0.0000000000000000 0.0000000000000000 0.0000000000000000 3.3001226343447025 3.6200044833214671 1.3202514867030708 1.1497210206920669 1191.9253361430958 1191.9260374135947 1.1490227879599570 
-45.359706162371467 -111.80137420603644 63.238181216973466 -45.359706162371459 -111.80137420603648 63.238181216973487 37.820095090463099 5.8546717593291949e-05 -6.9853944669057304e-05 -2.5870375371779742e-05 0.0000000000000000 -4.9159931680975433e-10 -5.1470383510832107e-11 -6.1371783104391398e-06 -0.0032691699500410100 -1.5312331635015513e-10 3.4101527762839837e-10 -1.2647017294636154e-09 0.0000000000000000 -44.075852747763513 -111.26860156453857 76.452402029906395 268.59635586333832 0.0000000000000000 0.0000000000000000 0.0000000000000000 0.0000000000000000 3.3100723700934607 3.6418945160183074 1.3322493412883178 1.1537301424886324 1036.3900341366827 1036.3898197336778 1.1542308653923288 
-59.836708502188351 -107.10540225861057 95.141568066887913 -59.836708502188394 -107.10540225861054 95.141568066887899 46.337736379075245 2.5703483567767595e-06 -2.3067072669654641e-05 2.2823455847304659e-06 0.0000000000000000 -3.3705647506264619e-07 -6.4424424222908979e-07 -6.7444180993358476e-06 -0.0026852789898793917 1.9814081540720647e-10 2.6643275470796244e-10 -4.6945587060970744e-10 0.0000000000000000 -58.254647241440821 -106.62760994408018 105.33920711112118 241.62621693813244 0.0000000000000000 0.0000000000000000 0.0000000000000000 0.0000000000000000 3.3038237283564622 3.6281131820359218 1.3246814050887388 1.1511365967121754 1007.6404286065180 1007.6390198222881 1.1509474464500329 
-66.159551311950892 -90.206515229645973 85.551640771733005 -66.159551311950906 -90.206515229645959 85.551640771733005 66.799909921842442 1.1945941132710358e-06 -3.8364159533289371e-05 2.7099540295123572e-05 0.0000000000000000 -5.3198057015119762e-08 -2.2601750694317215e-07 -6.6449823946789928e-06 -0.0026789439294683313 -2.3205156663347572e-10 -1.7834057226150798e-10 8.9956129483069218e-10 0.0000000000000000 -64.370648572599308 -90.090304358695661 96.688480747766732 239.98138923263960 0.0000000000000000 0.0000000000000000 0.0000000000000000 0.0000000000000000 3.3138195758031599 3.6501742036308840 1.3368109133102015 1.1542660604008690 991.92842109703042 991.95623543151635 1.1562015630252835 
-77.955774969870930 -100.01115413887435 90.677433460386638 -77.955774969870930 -100.01115413887430 90.677433460386638 63.830244210321773 1.2638592670138694e-05 -6.0458420740745530e-06 -6.6771506070373239e-06 0.0000000000000000 -1.4403734098282297e-07 -4.7127397327241641e-07 -6.3808582034823415e-06 -0.0027703458951955431 -2.3049581814012983e-10 2.4221502683770651e-10 -5.1427720754978730e-10 0.0000000000000000 -75.913673002404863 -99.702254402691466 101.32606574872912 288.13617662859207 0.0000000000000000 0.0000000000000000 0.0000000000000000 0.0000000000000000 3.3121995043818084 3.6468842036653193 1.3351459533726311 1.1541671002164546 994.35554980719849 994.40872417827256 1.1554878948817169 
-56.700179571812633 -93.809767861915844 92.905472773930370 -56.700179571812654 -93.809767861915873 92.905472773930356 59.016844898167292 4.1627072531655263e-06 5.6818169672095185e-06 2.0613353468103380e-05 0.0000000000000000 -1.5259847774585649e-07 -2.9625375732660557e-07 -6.7920017862500059e-06 -0.0026549812044151253 -7.8935147095268534e-11 -1.5149724706436263e-10 -1.7616431822275489e-10 0.0000000000000000 -55.164710769962618 -93.586508083202432 103.32606452766413 222.68531933077850 0.0000000000000000 0.0000000000000000 0.0000000000000000 0.0000000000000000 3.3102322844993499 3.6423093961282684 1.3325142311691851 1.1538199338191377 1008.3044293852361 1008.3242698563556 1.1543464174355231 
-47.086304542598285 -177.57612929482056 150.74683066948373 -47.086304542598306 -177.57612929482056 150.74683066948367 58.696740484323939 -6.3494053975195943e-06 1.3556782108711801e-05 -2.8166322285590420e-06 0.0000000000000000 -5.0678983232188557e-10 -1.6232504229662936e-10 -2.2768227800895602e-06 -0.0017761412452845567 -1.4959522683280542e-11 6.2301551783462971e-11 6.6300933882310209e-12 0.0000000000000000 -45.762777822239421 -175.89580528354742 155.64915507299250 248.91339099022119 0.0000000000000000 0.0000000000000000 0.0000000000000000 0.0000000000000000 3.3066918731187802 3.6335677053365925 1.3272511215776539 1.1520560046426565 997.29305639668485 997.29305636273796 1.1520629364961785 
-52.892433823936393 -187.41478738636391 164.56377410030521 -52.892433823936393 -187.41478738636394 164.56377410030521 65.348891417269670 6.8880748586124508e-06 -5.9310773364647481e-06 -7.3608279067358032e-06 60.638673219691405 -5.5787963137987617e-10 -1.7890866566006025e-10 -1.6673023139901488e-06 -0.0016662719281910685 1.5291607985394298e-11 -4.8898135508734071e-11 -5.5170175278922911e-11 -0.0016672064146058031 -51.435495451599998 -185.56281141599996 168.15371392000000 294.81703600272857 0.0000000000000000 0.0000000000000000 0.0000000000000000 0.0000000000000000 3.3042795141228090 3.6288700145351176 1.3249751840204029 1.1512680307206788 976.54401234625163 976.54401234235536 1.1510759145837279 
-43.921251846718206 -172.77299343611969 162.47152394189561 -43.921251846718185 -172.77299343611961 162.47152394189561 65.143683470591156 6.7046953493006631e-06 -5.5733317675289054e-06 -1.2309595483455123e-05 0.0000000000000000 -2.9527145077609814e-08 2.5527751464164363e-07 -1.9572050351823444e-06 -0.0016932872887424526 4.2437402184805252e-11 6.7510160492232652e-11 -7.2554646157712250e-11 0.0000000000000000 -42.672974891599750 -171.18173466392949 166.26923354793541 271.88244999766295 0.0000000000000000 0.0000000000000000 0.0000000000000000 0.0000000000000000 3.3059502618515064 3.6322817614954777 1.3267161469672901 1.1517267240262001 978.67406374039558 978.67406378550118 1.1518315759517348 
-61.026577422208895 -179.73537915848323 153.06884522165319 -61.026577422208895 -179.73537915848323 153.06884522165319 64.697573259859610 1.4123187550496092e-05 -3.7043544972419791e-07 -1.9263193920261065e-06 0.0000000000000000 -6.2944394141339899e-10 -1.6594747798137632e-10 -2.1743894542680664e-06 -0.0017729113473647815 -2.3216687868532533e-11 5.4752347294629878e-11 -9.7640657254117971e-11 0.0000000000000000 -59.382734921100123 -178.01738339707751 157.75061606229067 243.94852352315442 0.0000000000000000 0.0000000000000000 0.0000000000000000 0.0000000000000000 3.3058538745777590 3.6319714954277353 1.3264968116833842 1.1517026419291496 975.74060324262359 975.74060314059170 1.1517360094676941 
-31.595955904079457 -103.12870016377288 84.070751650063244 -31.595955904079457 -103.12870016377290 84.070751650063301 38.059888005926886 1.1820693556524237e-06 2.6209059491903218e-05 -2.2033222264251302e-05 0.0000000000000000 1.5353709531859949e-07 -2.6846582669518489e-07 -6.1215676765486055e-06 -0.0029795101658953954 3.7171698177525199e-10 -1.3437055531235390e-09 6.4172667064744930e-11 0.0000000000000000 -30.660097366607719 -102.72526557899965 95.328291536857705 204.58703120518373 0.0000000000000000 0.0000000000000000 0.0000000000000000 0.0000000000000000 3.3064083089009508 3.6321864593969813 1.3261279824094787 1.1509914240379981 1014.9174801511364 1014.9184495390331 1.1515752096871317 
-19.493733717875102 -111.43228437922127 81.913684469227405 -19.493733717875102 -111.43228437922122 81.913684469227476 -0.42107367183400435 4.0270272624166541e-05 -6.1202912186468814e-06 -4.4337085788382805e-05 0.0000000000000000 -2.6402047215157154e-10 -5.0850657018486345e-11 -5.3133273780758836e-06 -0.0029536469700423415 -8.0243292966728874e-10 -2.9634723448666355e-11 2.3089393974551563e-10 0.0000000000000000 -18.804221549666405 -110.90595113131390 93.354036648627854 267.24800799435923 0.0000000000000000 0.0000000000000000 0.0000000000000000 0.0000000000000000 3.3003340236561103 3.6193211719959639 1.3193167343465932 1.1497060939724724 1081.2218957374314 1081.2216214537120 1.1486145224381874 
-34.790072914541668 -105.16508553036607 72.639726241339659 -34.790072914541689 -105.16508553036603 72.639726241339702 20.825268693921178 5.7861643321663553e-05 -2.9485903731954170e-05 -2.6775547937219645e-05 0.0000000000000000 2.6003340837424219e-07 -9.4143913757444140e-08 -6.4535966035322789e-06 -0.0029674030809707956 4.2004191902139865e-10 -2.4942544378157962e-11 7.9472156373139548e-11 0.0000000000000000 -33.815892125380543 -104.71065599625929 85.007910193808286 270.69679205096202 0.0000000000000000 0.0000000000000000 0.0000000000000000 0.0000000000000000 3.3016748856313423 3.6231066989279701 1.3217995560825639 1.1505423755687125 1038.5197087818267 1038.5200906789132 1.1496861993844434 
-19.613446620857779 -100.71910493461377 84.172237580549876 -19.613446620857776 -100.71910493461380 84.172237580549861 19.669625974113732 2.6818917549698130e-05 -2.0045744509309331e-05 2.4393849906336461e-06 0.0000000000000000 -2.6507329664582358e-10 -3.2790659076908923e-11 -5.2136935870805701e-06 -0.0027627134959085239 -3.4736045218755980e-10 -2.7115757315206644e-10 -1.0626217219611322e-10 0.0000000000000000 -18.921183722278450 -100.37968114352928 95.398064000337470 185.31956687594098 0.0000000000000000 0.0000000000000000 0.0000000000000000 0.0000000000000000 3.3046143854213663 3.6289944673640155 1.3247441038423879 1.1506812581687476 1061.8376373175527 1061.8386837620674 1.1509764850812727 
-32.094973253558699 -118.62260221160346 170.14845035339440 -32.094973253558699 -118.62260221160342 170.14845035339437 58.162751957467080 2.1619621161089874e-05 3.9627279357065575e-05 -2.8446834132306631e-05 0.0000000000000000 -2.4572957061960237e-07 3.4346397814653495e-09 -1.5599934341894544e-06 -0.0019262593465963153 -8.8149439582700267e-11 -6.3218806731663545e-11 -1.2982524100868585e-11 0.0000000000000000 -31.124431206993112 -117.97934695114738 173.21200361760444 258.17126679857051 0.0000000000000000 0.0000000000000000 0.0000000000000000 0.0000000000000000 3.3063379999584579 3.6328002180806740 1.3268371360403650 1.1521170932186988 989.97587621900334 989.97587398716144 1.1518821409605271 
-31.609370237426212 -134.05221966624677 160.85746204191562 -31.609370237426216 -134.05221966624683 160.85746204191574 55.952298856123754 -8.0474296736513012e-06 1.1365614396356955e-05 -8.7110716306450462e-06 0.0000000000000000 -3.1466428478884042e-07 1.1686694962552192e-07 -1.9724820885295061e-06 -0.0017864182033648572 -1.7426252011414447e-10 1.2129670927069255e-10 -3.5356860809797436e-12 0.0000000000000000 -30.642131568542830 -133.13454878399213 164.80820313575899 262.24283076768535 0.0000000000000000 0.0000000000000000 0.0000000000000000 0.0000000000000000 3.3058833895213851 3.6319091357274678 1.3264002276354099 1.1515079683198801 997.12656311638148 997.12656346983545 1.1516943280391916 
-43.909632493045443 -120.79824392736252 159.63100585754825 -43.909632493045443 -120.79824392736249 159.63100585754822 57.859486671377937 1.2105742577961300e-05 -1.7902451197651644e-05 -2.0267892841204115e-05 0.0000000000000000 -4.5988716564993008e-07 3.8691488729555806e-08 -2.4309587228592328e-06 -0.0019764343115730343 -1.3918471508627873e-10 -2.2023125103907015e-10 8.2686139458275251e-10 0.0000000000000000 -42.676694985445003 -120.10595080876966 163.70375490782192 268.28772502602959 0.0000000000000000 0.0000000000000000 0.0000000000000000 0.0000000000000000 3.3046279405833920 3.6294564163586647 1.3252095382290809 1.1523633154315578 998.57486925700584 998.57486990300936 1.1511771264205448 
-24.553087955677178 -114.81939454644132 157.55733399999863 -24.553087955677171 -114.81939454644133 157.55733399999860 38.328698645098982 7.6773863128967545e-06 8.7307096308214793e-06 2.3392951442619767e-07 0.0000000000000000 -3.0853608556924428e-10 -5.6558979721899056e-11 -1.9763843148723481e-06 -0.0018216056669525566 -1.4214687988347420e-11 7.5175567374035679e-11 -1.9078599935411952e-12 0.0000000000000000 -23.747323328369049 -114.23396745764113 161.81277151251504 321.01516800445251 0.0000000000000000 0.0000000000000000 0.0000000000000000 0.0000000000000000 3.3022334931442181 3.6240053488025401 1.3221289492244985 1.1502958779889032 1021.6755480152106 1021.6755433848693 1.1498389579411272 
-6.8627283675616546 -105.40879611535527 99.568021794399328 -6.8627283675616573 -105.40879611535526 99.568021794399328 40.028868411233113 1.5325212803775010e-06 -2.2017997096679943e-06 -1.8516504567546375e-05 55.225452897278529 -1.5288878496555472e-10 -4.0691450209351387e-11 -4.5345241481697940e-06 -0.0020935089285210547 2.7689529412134636e-11 -1.1872788245327288e-11 -5.2333573792541760e-10 -0.0019323536649461690 -6.4634479885999987 -104.98755276399999 109.33149947120000 327.67017865987640 0.0000000000000000 0.0000000000000000 0.0000000000000000 0.0000000000000000 3.3045241088166080 3.6292153185464557 1.3250683834575898 1.1508841217962051 1002.8375560680107 1002.8376271482307 1.1511163614552617 
-12.331785308821091 -97.398368491179141 90.845730000668951 -12.331785308821093 -97.398368491179127 90.845730000668951 24.037223948830277 9.0403040142067193e-06 -1.7700210949763916e-05 -3.5644069320935093e-05 23.500762309695656 -2.0100721087601419e-10 -2.7188251650045459e-11 -4.9192992257474097e-06 -0.0025007303545507504 -7.1225018652067022e-11 5.7481402133262338e-11 -3.7510622071468133e-10 -0.0024645921676314073 -11.806838433999999 -97.116880539599975 101.43768333439998 212.90238721710071 0.0000000000000000 0.0000000000000000 0.0000000000000000 0.0000000000000000 3.3049901698392548 3.6303051183715001 1.3256971291735440 1.1510203835381509 1053.0097915267766 1053.0094218249521 1.1513895558080538 
-16.469629773587329 -110.87674369681073 92.679667541154501 -16.469629773587318 -110.87674369681072 92.679667541154473 21.357205855457440 -6.0485232116955225e-07 -7.7268149991153347e-06 -7.2395782147468754e-05 0.0000000000000000 -2.3741292265455627e-10 -4.9907411536764812e-11 -4.8383969328824605e-06 -0.0023961135871153841 1.6317296931717289e-10 -8.4082851188053302e-11 -7.6273326746745038e-10 0.0000000000000000 -15.849604639409371 -110.36010279166017 103.09742667861765 236.22178992679409 0.0000000000000000 0.0000000000000000 0.0000000000000000 0.0000000000000000 3.3019463640894684 3.6236484670170679 1.3220693272949182 1.1502390290784013 1045.7165639751436 1045.7165194023896 1.1498119061798553 
-24.555396322725823 -99.858623707045169 91.778490675328300 -24.555396322725823 -99.858623707045169 91.778490675328328 37.449107838618126 1.4496102484251947e-05 6.6982892092079568e-06 -3.3836862786188494e-05 0.0000000000000000 -3.0855684673980477e-10 -3.1338043271489369e-11 -4.8781514401241566e-06 -0.0024926737508971716 -2.5757326827610231e-10 2.7913343769360302e-10 -7.4207992981877402e-10 0.0000000000000000 -23.749578654390465 -99.534212460059550 102.28184693721489 211.57004919854941 0.0000000000000000 0.0000000000000000 0.0000000000000000 0.0000000000000000 3.3025679751527561 3.6248362444419668 1.3226325963108385 1.1505560660917158 1016.5215910918706 1016.5212267634743 1.1500577121280602 
-55.570876299270388 -108.89868011158535 104.52587091400697 -55.570876299270374 -108.89868011158529 104.52587091400693 28.601979467645958 -3.6444982631310760e-06 -4.5074294360734121e-05 2.6527115036252014e-05 0.0000000000000000 -5.6335073448193368e-07 -5.7759701979495119e-07 -6.3599278665556307e-06 -0.0027517817157961676 5.8701091006943400e-10 -5.3240405592317773e-10 1.4053106749389286e-09 0.0000000000000000 -54.087034329299712 -108.37170302860723 113.84396407125838 191.01171882188567 0.0000000000000000 0.0000000000000000 0.0000000000000000 0.0000000000000000 3.2956826961025967 3.6102571837058450 1.3149167484982298 1.1478713817900219 1022.2060314744846 1022.2030920523962 1.1466973811314416 
-42.893092588147262 -108.26070753265908 101.35770455731354 -42.893092588147276 -108.26070753265911 101.35770455731351 36.895808241798569 4.7518313288828880e-06 -3.1587629424088168e-05 7.9041387834916798e-06 0.0000000000000000 -6.0872356782790200e-07 -1.1597820303914777e-07 -6.2409865059531006e-06 -0.0022725207084593885 -4.6164903792280872e-10 5.4628524305634114e-10 3.9898313657909121e-10 0.0000000000000000 -41.690910404717421 -107.74885629568415 110.97670241767709 270.34727434602189 0.0000000000000000 0.0000000000000000 0.0000000000000000 0.0000000000000000 3.3014470970315175 3.6226297065558737 1.3215513306692441 1.1496204750372003 1016.6108245789512 1016.6083336649899 1.1495869493793658 