# For a description of the Tecplot format see the Tecplot User's guide.
#
Variables=x,y,z,s_u,s_v,s_w,s_p,mono_f_vel_u,mono_f_vel_v,mono_f_vel_w,const,u_nu,v_nu,w_nu,p_nu,x_nu,y_nu,z_nu,const,u_ref,v_ref,w_ref,vol_ref,x_ref,y_ref,z_ref,const,I1,I2,I3,J,p1,p2,p3
Zone f=fepoint, n=356, e=1130, et=brick, c=black
-67.7197 -97.8336 79.6313 -67.719696550602080 -97.833585351292328 79.631321901838888 -165.13362313055580 -2.1523939305096439e-05 1.1996391521632548e-05 3.3415643182281819e-05 6.0677412250843573e-20 1.5261995400805972e-07 8.1675008978265851e-09 0.00028398975879184713 0.0088839127481553821 6.6710375352071370e-10 -3.9080683463151909e-10 -8.6525342170079847e-11 -6.3197856781405668e-21 -65.754724465942431 -97.517594547729473 92.373562431030237 2074.8615187338191 0.0000000000000000 0.0000000000000000 0.0000000000000000 0.0000000000000000 3.3364418415151715 3.6973406579721382 1.3614008820542416 1.1668551784978456 2063.9387422437353 2073.8058964546162 1.1667908475271680 
-77.969517908988010 -131.51858875407765 64.579474606439504 -77.969517908988024 -131.51858875407765 64.579474606439490 -165.03672968792884 -4.4219010519103246e-05 -7.4199959014787070e-06 4.5714604280473223e-06 -145.48236853325596 1.7261550366853839e-07 2.4771727336059260e-08 0.00031881945057321559 0.0088801441572748611 1.3010913519253571e-09 5.6442805673377827e-11 -7.2718691336757592e-11 0.0083105421927480005 -75.747104543999981 -130.56019973999997 78.884476808000016 2128.8259272129790 0.0000000000000000 0.0000000000000000 0.0000000000000000 0.0000000000000000 3.3365253246198474 3.6975310628744320 1.3615088114274247 1.1668551784978465 2074.9372700358108 2069.4827444551379 1.1668370976371387 
-65.327154153008166 -122.58259101731254 56.050059057215691 -65.327154153008166 -122.58259101731254 56.050059057215677 -146.21052707119100 1.6134171546315112e-05 -3.9223995439296691e-06 7.5852589901236420e-06 -115.75134266688350 1.4795254843491534e-07 2.0366944575300749e-08 0.00033855635787460869 0.0087310411218134969 -4.3351501752585379e-10 -3.9382002193333738e-10 5.6373660756352304e-11 0.0073012422522647797 -63.422274742800013 -121.79461816400000 71.240629883439979 1237.7701333319521 0.0000000000000000 0.0000000000000000 0.0000000000000000 0.0000000000000000 3.3367048736318230 3.6978775306986162 1.3616747363829300 1.1668551784978451 2010.3584262053939 2041.7465629167395 1.1669081447430880 
-57.869896118413862 -133.06747461395727 62.076546889073313 -57.869896118413862 -133.06747461395727 62.076546889073327 -129.57149275061477 3.3046437348762621e-05 4.0746154855046945e-06 -1.9415503374077257e-05 -144.51210396541973 1.3340478988155269e-07 2.5535224601469512e-08 0.00032461117827864427 0.0081423058079310665 -6.3110559954582961e-10 1.1112590886009844e-10 7.3418385349004967e-10 0.0098270950080903575 -56.152318124399997 -132.07954718800002 76.641416164000006 2090.5778096190215 0.0000000000000000 0.0000000000000000 0.0000000000000000 0.0000000000000000 3.3363032082333643 3.6970817289603133 1.3612817967274260 1.1668551784978460 2009.0770846390299 2016.1731856883425 1.1667399707812169 
-126.33505996289506 -110.95360267948897 76.098375900961571 -126.33505996289503 -110.95360267948897 76.098375900961585 -228.61659537296555 -2.2260899689156919e-06 6.5158326729232230e-06 -3.3825896231676894e-05 -240.13544277225265 2.6696788424374057e-07 1.4634704559313150e-08 0.00029216492944783568 0.0098399236104759428 -6.8952836799311347e-11 -2.7201070802421395e-10 2.8960542601823941e-10 0.0099273550485669583 -122.89786571200003 -110.38740333199999 89.207425400000020 2092.2379289329847 0.0000000000000000 0.0000000000000000 0.0000000000000000 0.0000000000000000 3.3366310130023189 3.6977367215883232 1.3616082669903398 1.1668551784978463 2202.3709606073539 2200.3955726970917 1.1668797246296339 
-126.20371077804971 -129.42253068693299 80.868110286907481 -126.20371077804973 -129.42253068693299 80.868110286907481 -212.36510635923233 -3.1870849910830281e-06 3.2453783731135538e-06 -3.1756448017357614e-05 -232.31783346471551 2.6671165276326292e-07 2.3738522259009187e-08 0.00028112785371092747 0.0095234260113652401 -2.3983240786951201e-11 -2.3699624423794175e-10 1.5154468668698676e-10 0.0089991765708318499 -122.76981557999994 -128.50411506799998 93.481940963999989 2295.0048277193882 0.0000000000000000 0.0000000000000000 0.0000000000000000 0.0000000000000000 3.3366656922476654 3.6977928014637573 1.3616291611965916 1.1668551784978463 2166.0114944209827 2168.2777769098602 1.1668886101877940 
-89.854879126727724 -120.29756629211396 97.081217304252561 -89.854879126727653 -120.29756629211396 97.081217304252576 -170.15795935205674 -1.1768991975020990e-05 1.9420779403507646e-05 -3.1593937091844999e-05 -1.9218430717630579e-19 1.9580167576194182e-07 1.9240584236968061e-08 0.00024361102872916263 0.0087888248302822845 4.4396687093167713e-10 -5.8396444662385901e-10 3.1870117069030330e-10 1.5894609637916803e-20 -87.333945182495114 -119.55317056945796 108.01171823852533 1853.2119812635015 0.0000000000000000 0.0000000000000000 0.0000000000000000 0.0000000000000000 3.3364119953712401 3.6973250089952612 1.3614167827263797 1.1668551784978463 2090.6888915386789 2083.4932264946565 1.1667977313189370 
-125.30821673032807 -119.68194674543120 95.994307883626746 -125.30821673032804 -119.68194674543120 95.994307883626760 -184.45190936804454 -1.4777249719074898e-06 1.1687528467374121e-05 -1.6912432551936462e-05 -179.69735638572095 2.6496471106085551e-07 1.8937140300323563e-08 0.00024612611671770424 0.0090444156301101759 -7.0619336567665451e-12 -3.8471058012206007e-10 2.3978842474862552e-10 0.0090843781860203750 -121.89681335200000 -118.94929134799999 107.03765745040002 1571.7251237143605 0.0000000000000000 0.0000000000000000 0.0000000000000000 0.0000000000000000 3.3365536351209508 3.6975388671797988 1.3614862500879659 1.1668551784978456 2108.7918838805494 2116.7320152138859 1.1668274222483574 
-45.584513974476522 -165.22552817375728 114.53110703545377 -45.584513974476522 -165.22552817375723 114.53110703545374 -86.633072267082895 3.9720462709209773e-05 -4.4080783919725091e-05 1.4029849697924116e-05 0.0000000000000000 1.0943823913756034e-07 4.1386767346551778e-08 0.00020323231181151866 0.0068252955938726545 -1.4243385233086764e-09 1.5845738444316257e-09 -2.1831059465186331e-10 0.0000000000000000 -44.175503749389662 -163.62432261291502 123.64986896362305 1288.7765825848380 0.0000000000000000 0.0000000000000000 0.0000000000000000 0.0000000000000000 3.3360327791903042 3.6964243796004350 1.3608894608987754 1.1671138650366994 1917.5796949585701 1959.2397061735237 1.1665720604385323 
-16.147888340753422 -145.08181840450140 128.38233303706846 -16.147888340753418 -145.08181840450146 128.38233303706849 -85.595843837104283 8.8189175359115973e-06 -2.8922423125830131e-05 9.4016422172929057e-06 -80.334550165411116 5.2012726514671925e-08 3.1457417559721534e-08 0.00017118083513167903 0.0068918643454684101 -2.3862906598174614e-10 9.9977504595090428e-10 -2.5036972975491566e-10 0.0069001146714987851 -15.478227839600008 -143.86476845600004 136.06298808800005 1207.7015194609139 0.0000000000000000 0.0000000000000000 0.0000000000000000 0.0000000000000000 3.3351481694993272 3.6945813465624240 1.3599301584983829 1.1667874090844119 1933.9663440542424 1928.0011434667942 1.1661607031705175 
-45.584513974476522 -165.22552817375728 131.98099676665493 -45.584513974476522 -165.22552817375717 131.98099676665504 -119.94094913661355 4.9982553432971328e-06 -2.2129994975775996e-05 1.3737115921188670e-05 0.0000000000000000 1.0943823913756034e-07 4.1386767346551772e-08 0.00016285359489387474 0.0077003636062165943 -1.5150479713909897e-10 8.9766226322318817e-10 -4.0838796021417173e-10 0.0000000000000000 -44.175503749389669 -163.62432261291511 139.28801968872074 2260.0113226803110 0.0000000000000000 0.0000000000000000 0.0000000000000000 0.0000000000000000 3.3362875575841602 3.6970112488588458 1.3612249761445909 1.1668466408547724 2003.4309858452373 1999.2582141496537 1.1667155298767300 
-6.3042956656735356 -163.01783245212403 122.09160445500918 -6.3042956656735356 -163.01783245212397 122.09160445500920 -148.98985574073896 2.6112278188232863e-05 -2.4574713442832060e-05 1.0116581822485438e-05 -161.30886633928520 3.2809666539179716e-08 4.0298540504579705e-08 0.00018573746285710513 0.0080641815368709523 -8.2245529711473097e-10 8.9787696058071906e-10 -2.3147416438827765e-10 0.0080330230181999262 -5.8818733370400009 -161.45872929999999 130.42539591680000 1840.5999298976626 0.0000000000000000 0.0000000000000000 0.0000000000000000 0.0000000000000000 3.3367666167643080 3.6980279663632634 1.3617646542076220 1.1668551784978474 2057.6817668413996 2049.4996360262185 1.1669467122526138 
-10.303537948982925 -107.61143120153542 180.74500957839018 -10.303537948982923 -107.61143120153542 180.74500957839018 -163.48602776272642 -6.4082145064602047e-06 5.5805021950785765e-06 1.1313335651542882e-05 -167.06646892027257 4.0611461193940102e-08 1.2987253050766865e-08 5.0014585600166583e-05 0.0086389367038374985 6.6441073315070676e-11 -2.1999284443557981e-10 -1.5115505928802612e-10 0.0087969663308821236 -9.7806680107999995 -107.10896956400003 182.98909712000000 1021.2952016557671 0.0000000000000000 0.0000000000000000 0.0000000000000000 0.0000000000000000 3.3365805684857568 3.6976287269242714 1.3615504884999756 1.1668551784978454 2078.4475383858712 2077.6490860629970 1.1668549509845196 
-18.289210076810043 -109.16940789032202 192.35526700984244 -18.289210076810040 -109.16940789032199 192.35526700984244 -174.83547939289795 -9.9917513820872171e-06 6.1579805887611138e-06 5.5136528624025826e-06 -181.27826551705854 5.6190057162730511e-08 1.3755219185895839e-08 2.3148668084616020e-05 0.0087877763116420825 1.6021782579151703e-10 -2.6945927768434455e-10 -1.2936517432355842e-10 0.0090539584858948911 -17.565766725200003 -108.63723447200002 193.39391677600000 1230.2822850381203 0.0000000000000000 0.0000000000000000 0.0000000000000000 0.0000000000000000 3.3365696052671945 3.6976048112912876 1.3615374616732436 1.1668551784978454 2103.8660424159207 2103.1282531009415 1.1668493659407704 
-45.584513974476522 -120.29756629211396 166.88077622905735 -45.584513974476522 -120.29756629211381 166.88077622905749 -168.39313043171796 7.8384635977557920e-07 1.5319222252953072e-05 1.7557081552793383e-05 0.0000000000000000 1.0943823913756034e-07 1.9240584236968061e-08 8.2096161026612449e-05 0.0086845035193065332 5.8494584379707252e-13 -4.7358175897042878e-10 -1.2004249720171163e-10 0.0000000000000000 -44.175503749389591 -119.55317056945772 170.56432113891603 1872.3464537223574 0.0000000000000000 0.0000000000000000 0.0000000000000000 0.0000000000000000 3.3366423774638738 3.6977565877641676 1.3616166569399197 1.1668551784978449 2087.2438440666119 2090.0415370891014 1.1668833471094060 
-9.8431463266384291 -125.23567766411612 187.30124332715988 -9.8431463266384309 -125.23567766411612 187.30124332715988 -165.31910269307269 -4.5159904149478754e-06 -5.8230458567334029e-06 9.2371994397994547e-06 -164.86785554233595 3.9713321298151520e-08 2.1674710914965090e-08 3.4843583904375919e-05 0.0086575629814873607 -4.2053469056970532e-11 1.7208544802057121e-10 -1.4568243045789974e-10 0.0087305731303359783 -9.3318398883999993 -124.39710846400000 188.86462832000004 1016.3527334425750 0.0000000000000000 0.0000000000000000 0.0000000000000000 0.0000000000000000 3.3365648767155780 3.6975949443581011 1.3615323078437764 1.1668551784978471 2082.6171334884352 2082.0749537062602 1.1668471554785322 
-45.584513974476522 -165.22552817375728 97.081217304252561 -45.584513974476522 -165.22552817375720 97.081217304252561 -121.13596445320574 1.2913188861893784e-05 -6.3406832035232808e-05 -4.9490052598584873e-05 1.0199540096221335e-18 1.0943823913756033e-07 4.1386767346551785e-08 0.00024361102872916263 0.0074505469176004554 -4.4452269456045741e-10 2.1682842139374366e-09 5.5281514762743783e-10 -8.2902986314719670e-20 -44.175503749389662 -163.62432261291499 108.01171823852535 1450.3671205666894 0.0000000000000000 0.0000000000000000 0.0000000000000000 0.0000000000000000 3.3379854466358960 3.7007909164891677 1.3633194079861186 1.1673667944472323 2003.7821510546057 2035.8910743338197 1.1676125333497860 
-63.000085999703273 -162.50415277241106 72.522463293647917 -63.000085999703273 -162.50415277241106 72.522463293647903 -184.79639587377005 -2.0998490076640288e-05 -5.6246219993550405e-05 -1.4800719268455540e-05 -192.10077486777669 1.4341285425878425e-07 4.0045333715710292e-08 0.00030043952401825891 0.0086091268884499004 6.0053574156980912e-10 1.6268918539749673e-09 7.3340585842697009e-10 0.0095206983293748739 -61.153654769600031 -160.95484587600001 86.002782780800032 1645.6757988676138 0.0000000000000000 0.0000000000000000 0.0000000000000000 0.0000000000000000 3.3353312745380213 3.6951390375014856 1.3603124186662976 1.1665900952662867 2125.2766115788900 2123.3361097463812 1.1663242835314169 
-45.643182284700181 -169.68791716058755 69.480207300043645 -45.643182284700181 -169.68791716058755 69.480207300043631 -211.77089110734312 2.6947213680173521e-06 -5.9616666227949531e-05 -1.0211835040172415e-05 -178.00224928071933 1.0955269047485673e-07 4.3586418030372442e-08 0.00030747924722263065 0.0089971282767583698 2.3416108061525459e-11 1.7611973153790388e-09 5.3093468498542614e-10 0.0092025360059194948 -44.232698507600013 -168.00161050399998 83.276389748800028 1737.4139093181343 0.0000000000000000 0.0000000000000000 0.0000000000000000 0.0000000000000000 3.3365592517628944 3.6975378655303501 1.3614791785134155 1.1668551784978456 2161.3202348710483 2157.1564995768927 1.1668244378968520 
-45.584513974476522 -187.68950911457895 97.081217304252561 -45.584513974476522 -187.68950911457890 97.081217304252618 -221.18317271295905 -1.7112346835731321e-06 -2.9548600922614013e-05 -2.5411011847314712e-05 -7.3983609303691720e-20 1.0943823913756032e-07 5.2459879551491908e-08 0.00024361102872916263 0.0091623849799718736 1.5060916373556596e-10 1.0305515054205288e-09 6.9102624003130712e-11 5.9671545723665831e-21 -44.175503749389676 -185.65989863464350 108.01171823852533 1616.4576808433910 0.0000000000000000 0.0000000000000000 0.0000000000000000 0.0000000000000000 3.3362026019158444 3.6968198802185546 1.3611172918452890 1.1667796778094517 2183.2768428454879 2179.7816411121703 1.1666692692313780 
-89.854879126727724 -142.76154723293564 131.98099676665493 -89.854879126727653 -142.76154723293567 131.98099676665504 -158.84881522542119 -9.4312163693497983e-06 -5.9683508541902869e-06 6.9010795108414818e-06 0.0000000000000000 1.9580167576194182e-07 3.0313683119231882e-08 0.00016285359489387474 0.0084773959140429286 3.5806250071509048e-10 1.7417034116815748e-10 -1.3163298110323384e-10 0.0000000000000000 -87.333945182495100 -141.58874659118649 139.28801968872074 1877.7986991733408 0.0000000000000000 0.0000000000000000 0.0000000000000000 0.0000000000000000 3.3358997531084817 3.6961384031616231 1.3607374691289544 1.1665238639701239 2071.1756401632028 2103.9177761031747 1.1665061591121029 
-67.719696550602123 -165.22552817375728 131.98099676665493 -67.719696550602137 -165.22552817375714 131.98099676665507 -141.13605250947529 -2.1742756954525146e-05 -8.0498510377840662e-06 1.1853917307252103e-05 -8.6122295299635623e-21 1.5261995400805972e-07 4.1386767346551778e-08 0.00016285359489387474 0.0080998637823557762 7.7224715024669526e-10 3.7748749595542309e-10 -2.9670491350730962e-10 3.7459900743643680e-22 -65.754724465942374 -163.62432261291517 139.28801968872077 2018.1238718776010 0.0000000000000000 0.0000000000000000 0.0000000000000000 0.0000000000000000 3.3357978948782079 3.6959484241524088 1.3606494490916818 1.1667271735082265 2037.9554037629318 2039.1098019216106 1.1664688891978141 
-89.854879126727724 -165.22552817375728 114.53110703545377 -89.854879126727653 -165.22552817375717 114.53110703545373 -173.05348811636804 -1.5284250105919822e-05 -1.2255324727155276e-05 -9.0920802561848701e-06 0.0000000000000000 1.9580167576194182e-07 4.1386767346551778e-08 0.00020323231181151868 0.0086186816499526087 5.4738846656752163e-10 3.9892178720165555e-10 1.1124284669793148e-10 0.0000000000000000 -87.333945182495114 -163.62432261291505 123.64986896362312 1549.0027140339625 0.0000000000000000 0.0000000000000000 0.0000000000000000 0.0000000000000000 3.3369756125103289 3.6984552556464760 1.3619826825930941 1.1669001528990388 2099.0306021710730 2102.2515264349636 1.1670399825324620 
-89.854879126727724 -142.76154723293564 114.53110703545377 -89.854879126727653 -142.76154723293564 114.53110703545373 -137.50352480371953 -3.8500895934153453e-05 -1.7866651502591965e-05 4.3952132049905295e-06 0.0000000000000000 1.9580167576194188e-07 3.0313683119231882e-08 0.00020323231181151868 0.0080429527792247116 1.3917787483857948e-09 5.3359589169688192e-10 7.8266740216439998e-11 0.0000000000000000 -87.333945182495086 -141.58874659118649 123.64986896362313 1389.1126189879024 0.0000000000000000 0.0000000000000000 0.0000000000000000 0.0000000000000000 3.3357886826011303 3.6957153532904963 1.3604176976530433 1.1667670669966586 2024.6295855294015 2028.7845465946866 1.1663701956356176 
-46.632978069509996 -110.89886632017527 31.062179073315981 -46.632978069510003 -110.89886632017532 31.062179073315978 -276.20234506660069 1.0862221137075911e-05 1.7638731543282795e-05 -2.5140655826383322e-05 -277.42074833578818 1.1148360057333660e-07 1.4607725695725547e-08 0.00039637784259483055 0.010757516803265983 1.6090848610824091e-10 -1.8283254086102470e-10 5.5390738968953767e-10 0.010360137361927296 -45.197633928000002 -110.33371083599998 48.847122559999995 1069.0094105005942 0.0000000000000000 0.0000000000000000 0.0000000000000000 0.0000000000000000 3.3365881372694539 3.6976438754399079 1.3615580524469861 1.1668551784978458 2275.4948126450004 2275.5299186523330 1.1668581939046605 
-58.866235789388980 -99.172787929625031 28.137429817920971 -58.866235789388995 -99.172787929624988 28.137429817920971 -312.71266086600286 -1.2773995261013805e-05 1.9964655117879138e-05 -3.3416088990455148e-05 -315.78899767897389 1.3534846399210210e-07 8.8276190801650517e-09 0.00040314565740828812 0.011428868012017653 6.5801072665835042e-10 -1.4825439405860977e-10 5.1904274569632077e-10 0.012125913770836931 -57.123633070400032 -98.831257531200038 46.226036100800002 1475.5774262919704 0.0000000000000000 0.0000000000000000 0.0000000000000000 0.0000000000000000 3.3365825877275346 3.6976318748800883 1.3615515742278743 1.1668551784978458 2342.4836979429751 2342.4452383136540 1.1668554208843209 
-61.959947551728398 -106.05986593945161 40.450728101668957 -61.959947551728412 -106.05986593945160 40.450728101668957 -252.57034945533997 1.4293742471315750e-06 6.4181166282104908e-05 -6.4775623406896650e-05 -158.52963427868400 1.4138373449767982e-07 1.2222449274901237e-08 0.00037465291656957339 0.010470699228394355 6.7745578618608197e-10 -7.6825264280376124e-10 1.7314554569169450e-09 0.013418234008670817 -60.139641125599979 -105.58699381199996 57.260903223199996 1724.6135661994952 0.0000000000000000 0.0000000000000000 0.0000000000000000 0.0000000000000000 3.3365686096485927 3.6976026244682525 1.3615362763488079 1.1668551784978460 2225.0407066970920 2225.3890300117278 1.1668488728297592 
-20.176876075499500 -88.249267053571160 40.939665551849323 -20.176876075499504 -88.249267053571188 40.939665551849323 -260.57413755157006 -8.8353089581803770e-06 6.3470143588854173e-06 -4.8055530736420422e-05 -265.70796049184912 5.9872551472217594e-08 3.4431357764930230e-09 0.00037352152449798831 0.010529824651486993 1.0886284491348448e-10 -6.5447953723423758e-10 5.3868453494847052e-11 0.010534524287364937 -19.406020858399991 -88.116056368799974 57.699076624800000 1439.6451283969650 0.0000000000000000 0.0000000000000000 0.0000000000000000 0.0000000000000000 3.3365756413519088 3.6976170858893984 1.3615437079605177 1.1668551784978456 2253.6777370650748 2253.7457783696991 1.1668520555061153 
-60.561724635434295 -180.48045354603201 64.435200297108565 -60.561724635434288 -180.48045354603207 64.435200297108594 -268.24878180654355 -6.7478241695862771e-06 -1.0987841351704750e-05 -1.5901372968146594e-05 -281.45345410889684 1.3865605730245534e-07 4.8906326988173994e-08 0.00031915329861931241 0.0099272596210619214 2.4918073651388629e-10 5.9175661052579470e-11 6.0723421021503751e-10 0.010993934676209625 -58.776536899199989 -178.58832514800000 78.755181813599989 1584.4809985467919 0.0000000000000000 0.0000000000000000 0.0000000000000000 0.0000000000000000 3.3370591490373296 3.6986663766266030 1.3621125399794078 1.1668551784978460 2268.9185172895477 2270.1248537247161 1.1670959561155279 
-76.652716400528774 -186.95848253221834 57.149328349131004 -76.652716400528774 -186.95848253221834 57.149328349131004 -281.73801733891423 -3.2422972246452667e-06 -9.9069750011570014e-06 -4.3312071608422411e-06 -283.42619502985866 1.7004666408304556e-07 5.2099530023497203e-08 0.00033601266939342622 0.010234613657242890 3.8539359222701541e-11 6.8183556928001148e-11 1.8691220984786631e-10 0.0099432393361573029 -74.463376691600018 -184.94281327599995 72.225767276240006 1182.3928641350060 0.0000000000000000 0.0000000000000000 0.0000000000000000 0.0000000000000000 3.3365273253475176 3.6974711933746796 1.3614439648570198 1.1668551784978463 2292.4969160787505 2292.6006743774719 1.1668092308434324 
-71.804337939732747 -214.12216638511669 73.180242346288082 -71.804337939732733 -214.12216638511671 73.180242346288082 -273.84433023308117 1.5238277416547756e-06 2.0718246430860055e-06 -1.4932628754391976e-05 -273.79493432499441 1.6058835128340829e-07 6.5489213607605734e-08 0.00029891743565357842 0.010031047928996390 -1.5641878516685411e-11 2.5204335479627775e-11 1.2725391762879781e-10 0.010074496714928220 -69.736773305200003 -211.58846536000007 86.592267764799999 1391.6778601551057 0.0000000000000000 0.0000000000000000 0.0000000000000000 0.0000000000000000 3.3366749804005691 3.6978737230073788 1.3617034612502545 1.1668551784978467 2273.5303042253640 2273.0047809055077 1.1669206054652823 
-89.321378281170055 -209.72373628110654 77.326599323345874 -89.321378281170070 -209.72373628110654 77.326599323345846 -263.31082469531447 1.0208215971192505e-05 -4.9153421178348369e-06 -1.7125824754391321e-05 -283.13055456960643 1.9476091317471855e-07 6.3321130117088842e-08 0.00028932284352123361 0.0099357439235772237 -1.9343274475135331e-10 1.3921097539067622e-10 -1.6031819586564045e-10 0.010055770940403207 -86.813844096400004 -207.27391660800001 90.308128229600001 1955.0875990986240 0.0000000000000000 0.0000000000000000 0.0000000000000000 0.0000000000000000 3.3369239922251235 3.6983734648012718 1.3619539855227649 1.1668551784978463 2266.8013069138356 2267.1266742562802 1.1670279811643698 
-76.560639961906034 -215.13842536398244 88.874520500583586 -76.560639961906034 -215.13842536398244 88.874520500583586 -251.93123694118881 -5.5065881506860953e-07 8.7397471611295808e-07 -5.4652908580854500e-06 -258.80320117221822 1.6986703155197350e-07 6.5990180875274973e-08 0.00026260117091325691 0.0097074909613431674 9.3782882027585615e-12 -1.5144072323250358e-11 1.0439229962599901e-10 0.0098329727095265718 -74.373612905599998 -212.58534351999998 100.65708370800000 988.41240310934302 0.0000000000000000 0.0000000000000000 0.0000000000000000 0.0000000000000000 3.3369113612783670 3.6983997801113944 1.3619952311662833 1.1668551784978463 2245.6238580285803 2245.4786905468536 1.1670457429347110 
-67.719696550602123 -187.68950911457895 97.081217304252561 -67.719696550602137 -187.68950911457890 97.081217304252618 -222.81546276784221 3.9929385874588655e-06 -2.2906165451917500e-05 -2.7428931298802963e-05 -4.7854776854426337e-19 1.5261995400805972e-07 5.2459879551491908e-08 0.00024361102872916268 0.0092920926373463632 -2.6932711869026110e-12 7.7770879932785757e-10 9.6285335572427789e-11 3.8678251616760469e-20 -65.754724465942374 -185.65989863464350 108.01171823852535 1808.0980320372519 0.0000000000000000 0.0000000000000000 0.0000000000000000 0.0000000000000000 3.3353181254709616 3.6947281974583470 1.3598971685108765 1.1664991029717076 2181.1444505571658 2180.5120213807436 1.1661458219806515 
-85.882518955149450 -210.83157339959331 98.211771831543956 -85.882518955149436 -210.83157339959328 98.211771831543956 -233.21632003418895 5.7907988036841329e-06 -5.0899192251219549e-06 -2.1595271052195411e-05 -228.11797218679430 1.8805232793184243e-07 6.3867214183943588e-08 0.00024099494680029920 0.0094748969040900043 -1.5070603302944400e-10 7.6665888507416340e-11 2.8229432809474773e-10 0.0094684441564585747 -83.461357431600007 -208.36062644399999 109.02489266960001 1287.0831768928649 0.0000000000000000 0.0000000000000000 0.0000000000000000 0.0000000000000000 3.3370355225023789 3.6986470513461187 1.3621180742746877 1.1668551784978465 2198.2702365342816 2201.5725582492491 1.1670982814184494 
-42.900435921436760 -130.99466993022733 49.928512526035369 -42.900435921436767 -130.99466993022730 49.928512526035362 -195.86094240001310 1.6540512346312675e-05 8.7211662405510440e-06 -2.9924744407591961e-05 -202.30389960696115 1.0420209117789626e-07 2.4513473917409101e-08 0.00035272150151399728 0.0093025129380114643 -1.5919232924881574e-10 9.2908860246739026e-11 8.7359894740900990e-10 0.010153096432689147 -41.558840772800004 -130.04627243999997 65.754654395919971 2180.9238908936368 0.0000000000000000 0.0000000000000000 0.0000000000000000 0.0000000000000000 3.3366660512108619 3.6978112844443056 1.3616478708930269 1.1668551784978463 2146.9837039313925 2144.5645739999936 1.1668966318854268 
-23.646088095419401 -135.47903229064246 38.938847219133798 -23.646088095419401 -135.47903229064244 38.938847219133798 -238.73099198204937 9.8954175292348540e-06 4.7369780857098947e-06 -1.1662705383844404e-05 -240.35326235939573 6.6640353457714241e-08 2.6723936841221988e-08 0.00037815138052366143 0.0099785987689739886 -8.5909646522568217e-11 7.1875306586169282e-11 1.7870154010251166e-10 0.0098915483414379769 -22.788097858800000 -134.44511465599999 55.905993737599999 935.86986824075086 0.0000000000000000 0.0000000000000000 0.0000000000000000 0.0000000000000000 3.3365357162628113 3.6975302391579778 1.3614965700483059 1.1668551784978465 2209.2644682924583 2209.4997869302811 1.1668318863035292 
-11.580717829680497 -104.03672588943461 45.860095936849000 -11.580717829680502 -104.03672588943461 45.860095936849000 -234.24757130199066 -7.3214069924458382e-06 -4.8885979185368499e-06 -4.1387539565641910e-05 -228.11509203559723 4.3103008329214987e-08 1.1225188556451826e-08 0.00036213574104948520 0.0099376150147739255 2.9278064958286790e-11 -3.2987694913674579e-10 1.1333578898742387e-10 0.0098398790453901111 -11.025769398400001 -103.60243655599999 62.108642139439993 1284.9349949311236 0.0000000000000000 0.0000000000000000 0.0000000000000000 0.0000000000000000 3.3365602576177262 3.6975842940987871 1.3615262490007085 1.1668551784978460 2213.0530633911308 2213.5975223727369 1.1668445850717744 
-30.012138968103262 -141.92108073294426 54.745199060338102 -30.012138968103265 -141.92108073294426 54.745199060338102 -195.82128649920429 1.1485187331031400e-05 1.4782401296392688e-05 -3.3249484983087381e-05 -193.72588337780783 7.9059364166411683e-08 2.9899400733057739e-08 0.00034157577938742639 0.0091742266524837066 -1.6687851114884830e-10 9.0762044157295071e-11 8.0085833001163643e-10 0.010224360895307651 -28.994254794799993 -140.76430841599998 70.071247290159988 2176.9829965296321 0.0000000000000000 0.0000000000000000 0.0000000000000000 0.0000000000000000 3.3367121263344766 3.6979149344991820 1.3617058502203554 1.1668551784978463 2134.6646201302569 2135.1605315257129 1.1669214271462778 
-106.34141329712182 -196.24672596589539 81.491286994762476 -106.34141329712180 -196.24672596589542 81.491286994762490 -245.42835876229398 -2.3286772265473171e-06 -6.6903310596421582e-07 -1.5678251300953626e-05 -259.05086968011256 2.2796391352386538e-07 5.6677943227612104e-08 0.00027968583452064877 0.0097567404945754690 4.5302815073391623e-11 -1.0351228913927645e-10 -1.3353588839336673e-11 0.0097011227083025758 -103.40639267600000 -194.05392295999994 94.040416199999996 2662.2783756828549 0.0000000000000000 0.0000000000000000 0.0000000000000000 0.0000000000000000 3.3368376005339373 3.6982272352028334 1.3618953428697278 1.1668551784978460 2227.0819871980025 2226.5029900086015 1.1670028784509758 
-84.905113179592107 -163.87686793736682 63.371469954799686 -84.905113179592078 -163.87686793736691 63.371469954799693 -251.55297677839496 -1.8477518912168381e-05 -1.9064242803319557e-05 -2.6722737231332981e-05 -250.33259780854252 1.8614557983909205e-07 4.0721995997472511e-08 0.00032161475063929856 0.0099005339313247218 2.9556475368815265e-10 3.1240392830305387e-10 1.0759314702854488e-09 0.011873504360391789 -82.508500824799995 -162.30138233600007 77.801893530400037 2229.3857910936085 0.0000000000000000 0.0000000000000000 0.0000000000000000 0.0000000000000000 3.3370520528242760 3.6986561872426007 1.3621093801789539 1.1668551784978456 2236.7186823301304 2236.5448195207700 1.1670946553056225 
-28.983134236314495 -125.91356152731942 118.89357946825406 -28.983134236314502 -125.91356152731942 118.89357946825396 -58.528226284260292 -1.1415227346180639e-05 2.6103171971654300e-06 3.7151672187286841e-05 -1.4813408934048088e-19 7.7051961810958845e-08 2.2008863176381510e-08 0.00019313763258566044 0.0062688219076611259 5.5627299926276309e-10 -1.3067312173635100e-10 -6.7614392234337920e-10 9.9853719336875741e-21 -27.991095225219734 -125.06206457489009 127.55940664489751 1124.7619503421174 0.0000000000000000 0.0000000000000000 0.0000000000000000 0.0000000000000000 3.3361973580459114 3.6967393914440660 1.3610396543548877 1.1669955165749120 1877.8558070196955 1878.9952850084971 1.1666358682498406 