# For a description of the Tecplot format see the Tecplot User's guide.
#
Variables=x,y,z,s_u,s_v,s_w,s_p,mono_f_vel_u,mono_f_vel_v,mono_f_vel_w,const,u_nu,v_nu,w_nu,p_nu,x_nu,y_nu,z_nu,const,u_ref,v_ref,w_ref,vol_ref,x_ref,y_ref,z_ref,const,I1,I2,I3,J,p1,p2,p3
Zone f=fepoint, n=356, e=1130, et=brick, c=black
-66.2715 -97.6011 89.2262 -66.271487219741161 -97.601075339233986 89.226234136929776 -97.661229548525981 -5.5438918610711054e-16 3.1117077420878360e-16 6.4785921562526514e-16 2.3685063069169064e-31 1.1474113306708668e-07 8.1236485871549746e-09 4.8589383260022594e-05 0.0018039458052994224 1.0696772723480146e-20 -6.8670801113301739e-21 -1.1884236636886441e-21 -5.4422199485029213e-32 -65.754724465942431 -97.517594547729473 92.373562431030237 2074.8615187338191 0.0000000000000000 0.0000000000000000 0.0000000000000000 0.0000000000000000 3.0819077911290083 3.1653421827373749 1.0834425177050482 1.0409042452268740 635.72038669090000 635.12517073823778 1.0408854496494018 
-76.331571091660535 -130.81339404996848 75.351147008346757 -76.331571091660550 -130.81339404996851 75.351147008346757 -97.444841968710733 -1.1002339127474643e-15 -5.9402002634954131e-17 2.0512522223737356e-17 -93.308703655679281 1.2977396843250055e-07 2.4638726003889388e-08 5.4548588443559254e-05 0.0017993583140718293 1.9486437943160279e-20 1.4922516908088570e-21 -2.2001925101579039e-22 0.0017892564922862555 -75.747104543999981 -130.56019973999997 78.884476808000016 2128.8259272129790 0.0000000000000000 0.0000000000000000 0.0000000000000000 0.0000000000000000 3.0819334139821914 3.1653950109807032 1.0834697400753259 1.0409042452268746 638.14861205601096 637.04517418914452 1.0408985254914713 
-63.923233884845125 -122.00279067008864 67.488564989092296 -63.923233884845118 -122.00279067008864 67.488564989092296 -93.363432008626148 2.9777921773714113e-16 8.9666863411871125e-17 4.4010974634612308e-17 -86.367586168019983 1.1123212576014119e-07 2.0257584110172644e-08 5.7925485404730630e-05 0.0017928322378470208 -7.0723107100000140e-21 -1.0659555090622520e-20 5.9235588827876647e-21 0.0015581863887688561 -63.422274742800013 -121.79461816400000 71.240629883439979 1237.7701333319521 0.0000000000000000 0.0000000000000000 0.0000000000000000 0.0000000000000000 3.0819795405008574 3.1654863580824606 1.0835149428386732 1.0409042452268757 622.24576840172995 622.21963930983748 1.0409202331565994 
-56.604019367883303 -132.34054517445429 73.043899301574172 -56.604019367883318 -132.34054517445429 73.043899301574157 -86.275788300457805 7.2806573308412911e-16 2.5204246662262190e-16 -5.3449847597718004e-16 -89.420546028988966 1.0029498190289309e-07 2.5398127101450282e-08 5.5539527262560284e-05 0.0016801422545594227 -7.5247613705375844e-21 9.5555909343725416e-22 1.3225668100553360e-20 0.0019932066088508495 -56.152318124399997 -132.07954718800002 76.641416164000006 2090.5778096190215 0.0000000000000000 0.0000000000000000 0.0000000000000000 0.0000000000000000 3.0818722747173823 3.1652722705127276 1.0834081415090524 1.0409042452268740 616.71372169516246 615.77753452942420 1.0408689516967089 
-123.80180423626734 -110.53698607031012 85.969495437638358 -123.80180423626734 -110.53698607031012 85.969495437638344 -114.30146412846568 -6.6353455309839273e-17 1.6044296030627185e-16 -9.1696739360970825e-16 -117.31624272093427 2.0070898351653982e-07 1.4556126803899616e-08 4.9988118558275105e-05 0.0019533772494341925 -1.2662382959686349e-21 -4.5849779105096700e-21 6.0073038649208421e-21 0.0019697593474819028 -122.89786571200003 -110.38740333199999 89.207425400000020 2092.2379289329847 0.0000000000000000 0.0000000000000000 0.0000000000000000 0.0000000000000000 3.0819600814082864 3.1654478990962067 1.0834959512597702 1.0409042452268746 671.16294915427284 670.72044072109827 1.0409111165332001 
-123.67288649518191 -128.74674891029608 90.366329851805318 -123.67288649518193 -128.74674891029605 90.366329851805332 -109.57439055591263 -8.9823778955857637e-17 1.1703687109905151e-16 -8.7401888564379762e-16 -114.83392920711452 2.0051634694318030e-07 2.3611059829509173e-08 4.8099724042849346e-05 0.0018944531562695959 -5.1412967034436055e-22 -4.7383974084770090e-21 3.0615600657267927e-21 0.0017923746262980161 -122.76981557999994 -128.50411506799998 93.481940963999989 2295.0048277193882 0.0000000000000000 0.0000000000000000 0.0000000000000000 0.0000000000000000 3.0819684529227165 3.1654635961572519 1.0835032660778405 1.0409042452268746 660.62070107885722 662.00960669199435 1.0409146239055234 
-87.996918858984799 -119.74983054632838 105.31188889687098 -87.996918858984813 -119.74983054632834 105.31188889687105 -97.911473178117802 -3.1337257182043783e-16 4.7157569124022823e-16 -8.6112404887683911e-16 -1.7257929099374889e-30 1.4720556437697319e-07 1.9137285922621317e-08 4.1680762332241272e-05 0.0017663580150211839 7.5642714130992609e-21 -9.9829559240084388e-21 5.9251446450611311e-21 3.4763414871944486e-31 -87.333945182495114 -119.55317056945796 108.01171823852533 1853.2119812635015 0.0000000000000000 0.0000000000000000 0.0000000000000000 0.0000000000000000 3.0819034739964750 3.1653369264951716 1.0834416130075539 1.0409042452268742 640.28025335714995 637.31841472372969 1.0408850220347856 
-122.79396920366113 -119.14284967877428 104.30995454183203 -122.79396920366115 -119.14284967877428 104.30995454183201 -102.24308770755275 -4.0291956907458566e-17 2.7684218412873511e-16 -4.3128437193830868e-16 -101.15667981025084 1.9920297131270637e-07 1.8835463355681981e-08 4.2111082693807596e-05 0.0018061008520943308 -9.9745645539656976e-23 -6.6357242921567956e-21 4.5724931685979933e-21 0.0018151077721453217 -121.89681335200000 -118.94929134799999 107.03765745040002 1571.7251237143605 0.0000000000000000 0.0000000000000000 0.0000000000000000 0.0000000000000000 3.0819371215104221 3.1653987667618853 1.0834697484940661 1.0409042452268742 646.05446118423527 649.16523530925940 1.0408985294708233 
-44.546055580497523 -164.04734096051718 121.39753842897767 -44.546055580497523 -164.04734096051712 121.39753842897770 -70.313103819338011 1.1252479038444555e-15 -1.2865644632348692e-15 5.3493377269425799e-16 0.0000000000000000 8.2276701590666690e-08 4.1164575581564826e-08 3.4772143661321309e-05 0.0014178293386935489 -2.6283892228246147e-20 2.8874415808517970e-20 3.4776190354277943e-22 0.0000000000000000 -44.175503749389662 -163.62432261291502 123.64986896362305 1288.7765825848380 0.0000000000000000 0.0000000000000000 0.0000000000000000 0.0000000000000000 3.0817875950003573 3.1650948421547351 1.0833152988662389 1.0409790095462159 583.29848296783553 586.93683316878219 1.0408243797615844 
-15.654340063986250 -144.18629772791527 134.16586937456469 -15.654340063986247 -144.18629772791525 134.16586937456466 -71.108815326859798 2.7943643911333012e-16 -7.7746824245043627e-16 4.2410692334651866e-16 -72.252542053070997 3.9103661420014646e-08 3.1288516499916603e-08 2.9288278709849180e-05 0.0014197324782907145 -3.6309205332698751e-21 1.8288804560555786e-20 -3.5625539178791798e-21 0.0013852870716264283 -15.478227839600008 -143.86476845600004 136.06298808800005 1207.7015194609139 0.0000000000000000 0.0000000000000000 0.0000000000000000 0.0000000000000000 3.0814834725124007 3.1644796512235494 1.0830042010905208 1.0408704145119561 590.41420940668104 591.59647574456335 1.0406748975229836 
-44.546055580497523 -164.04734096051718 137.48318796108433 -44.546055580497523 -164.04734096051720 137.48318796108435 -82.585706127978355 9.0950870275966663e-17 -5.8378296407248175e-16 5.6465209058014797e-16 0.0000000000000000 8.2276701590666690e-08 4.1164575581564833e-08 2.7863524962867814e-05 0.0015626630089110370 -2.4768927784717471e-21 1.6357767593520214e-20 -7.3249792538910855e-21 0.0000000000000000 -44.175503749389669 -163.62432261291511 139.28801968872074 2260.0113226803110 0.0000000000000000 0.0000000000000000 0.0000000000000000 0.0000000000000000 3.0818537729411344 3.1652322337031786 1.0833865696363012 1.0408904248540809 613.43280274499512 612.16524568444720 1.0408585765341483 
-5.9929650556017720 -161.87062472135105 128.36695277214747 -5.9929650556017720 -161.87062472135102 128.36695277214747 -89.297228719200120 7.5375464498437959e-16 -6.3719732249113021e-16 3.5593403590749874e-16 -93.291324773791999 2.4666618136937046e-08 4.0082186958390054e-08 3.1778852886965581e-05 0.0016250795473961997 -1.4106181779712798e-20 1.6324989883376286e-20 -4.4314389336217601e-21 0.0015981258478332541 -5.8818733370400009 -161.45872929999999 130.42539591680000 1840.5999298976626 0.0000000000000000 0.0000000000000000 0.0000000000000000 0.0000000000000000 3.0820087383445340 3.1655468956522337 1.0835463056936467 1.0409042452268740 625.85918800432114 625.41788989085046 1.0409353023616601 
-9.9181761775792712 -107.24171360189348 182.43480839832924 -9.9181761775792712 -107.24171360189348 182.43480839832927 -98.988009788382243 -1.7999578500905315e-16 1.0339793681356887e-16 3.5814343477537621e-16 -99.818401997073224 3.0532082209711036e-08 1.2917525105127227e-08 8.5572728911742502e-06 0.0016451712481769967 -2.3412840738032677e-22 -3.7661130676318152e-21 -4.4538832400128581e-22 0.0016796929527472418 -9.7806680107999995 -107.10896956400003 182.98909712000000 1021.2952016557671 0.0000000000000000 0.0000000000000000 0.0000000000000000 0.0000000000000000 3.0819455998789027 3.1654184388704247 1.0834809685489377 1.0409042452268742 641.55166415163058 641.34273662197018 1.0409039184281335 
-17.756023157601259 -108.77782798826154 193.13737070082590 -17.756023157601255 -108.77782798826152 193.13737070082587 -102.55108406093692 -2.8986446552134661e-16 1.2241342203842728e-16 1.8145603595645289e-16 -104.30174731392449 4.2244218803610962e-08 1.3681376309637727e-08 3.9606340411779684e-06 0.0016351073551922192 -1.4600141948087049e-21 -4.2156259944544489e-21 8.8966341146242057e-22 0.0016824361466113709 -17.565766725200003 -108.63723447200002 193.39391677600000 1230.2822850381203 0.0000000000000000 0.0000000000000000 0.0000000000000000 0.0000000000000000 3.0819422575018445 3.1654116129478997 1.0834774836896233 1.0409042452268733 649.65643693298364 649.47627389611819 1.0409022440520170 
-44.546055580497523 -119.74983054632838 169.65448702529773 -44.546055580497523 -119.74983054632851 169.65448702529784 -99.915881852251957 3.4823801087065591e-17 3.6062844997070860e-16 5.4146069024145622e-16 0.0000000000000000 8.2276701590666690e-08 1.9137285922621313e-08 1.4046287620139705e-05 0.0016489905513621666 3.9164941766162835e-22 -7.5826271476031014e-21 2.5296711783430554e-21 0.0000000000000000 -44.175503749389591 -119.55317056945772 170.56432113891603 1872.3464537223574 0.0000000000000000 0.0000000000000000 0.0000000000000000 0.0000000000000000 3.0819662585238561 3.1654601512372285 1.0835020248840830 1.0409042452268733 643.24834390657645 643.87220886286923 1.0409140381126050 
-9.4663070012520834 -124.61864788783048 188.47847285454122 -9.4663070012520816 -124.61864788783046 188.47847285454122 -99.827110558121277 -1.4644219531970841e-16 -1.3389766807177296e-16 2.6495809987477993e-16 -99.778090484564942 2.9856851366250048e-08 2.1558338725302661e-08 5.9615820608982526e-06 0.0016348135043921437 -1.8059410922309921e-21 2.3983345747170102e-21 -1.2353631456681219e-21 0.0016503066679851989 -9.3318398883999993 -124.39710846400000 188.86462832000004 1016.3527334425750 0.0000000000000000 0.0000000000000000 0.0000000000000000 0.0000000000000000 3.0819407615765937 3.1654085895690613 1.0834759559624596 1.0409042452268733 643.52194022313699 643.43348703865388 1.0409015098844234 
-44.546055580497523 -164.04734096051718 105.31188889687098 -44.546055580497523 -164.04734096051712 105.31188889687104 -80.046712443304230 3.5618136601809905e-16 -1.7100673954286756e-15 -1.5100008440396874e-15 9.5274711856917402e-30 8.2276701590666677e-08 4.1164575581564833e-08 4.1680762332241266e-05 0.0015278734158569267 -7.2466593363682429e-21 3.6066848789209287e-20 6.9174303884088802e-21 -1.9149986296694392e-30 -44.175503749389662 -163.62432261291499 108.01171823852535 1450.3671205666894 0.0000000000000000 0.0000000000000000 0.0000000000000000 0.0000000000000000 3.0823643103145830 3.1662809208570435 1.0839249527401835 1.0410528809619359 608.97946182783517 622.56562031916440 1.0411171526406375 
-61.639242781061988 -161.36415324994118 82.673149280456684 -61.639242781061981 -161.36415324994127 82.673149280456698 -98.601307092828279 -5.7716757382682047e-16 -1.4394967603109412e-15 -3.4896644526194484e-16 -100.74392473559595 1.0781914591695416e-07 3.9830318321332214e-08 5.1403864850918524e-05 0.0017091462831089032 1.0619178509422283e-20 2.8215104718367630e-20 1.1564233062623990e-20 0.0018372387621305307 -61.153654769600031 -160.95484587600001 86.002782780800032 1645.6757988676138 0.0000000000000000 0.0000000000000000 0.0000000000000000 0.0000000000000000 3.0816563802136590 3.1648414389777244 1.0831932344918234 1.0408384478225969 643.78765978500030 642.22396934837150 1.0407656996217758 
-44.603637864211272 -168.44711148954798 79.868738223774272 -44.603637864211272 -168.44711148954792 79.868738223774258 -105.43051206227265 3.2826544549023383e-17 -1.4625807646422595e-15 -2.2648049704595340e-16 -95.827743046897680 8.2362749814768321e-08 4.3352402057106332e-08 5.2608330147307925e-05 0.0017742670272417305 5.6372084944090164e-23 2.9708719195103112e-20 8.1051286541466138e-21 0.0017815397330773759 -44.232698507600013 -168.00161050399998 83.276389748800028 1737.4139093181343 0.0000000000000000 0.0000000000000000 0.0000000000000000 0.0000000000000000 3.0819316246246848 3.1653870058273692 1.0834634778980701 1.0409042452268740 652.73542901959559 649.84463555587047 1.0408955187660633 
-44.546055580497523 -186.19609616761156 105.31188889687098 -44.546055580497523 -186.19609616761142 105.31188889687105 -108.15207391422173 -5.2154467023488685e-17 -7.4223272943129571e-16 -6.7054249519594614e-16 -7.0108343601937331e-31 8.2276701590666690e-08 5.2178213250098095e-08 4.1680762332241266e-05 0.0018015556588992817 2.2834216045063704e-21 1.7345832559981965e-20 9.2351547825017148e-22 1.4179372143121486e-31 -44.175503749389676 -185.65989863464350 108.01171823852533 1616.4576808433910 0.0000000000000000 0.0000000000000000 0.0000000000000000 0.0000000000000000 3.0818610001152100 3.1652463818682008 1.0833934779953085 1.0408870259684480 658.84517592097097 658.65697872643432 1.0408618886148624 
-87.996918858984799 -141.89858575342279 137.48318796108433 -87.996918858984813 -141.89858575342271 137.48318796108430 -94.672290530984611 -2.7219785240146162e-16 -1.2423474813698337e-16 2.5770893005656808e-16 0.0000000000000000 1.4720556437697321e-07 3.0150937913031584e-08 2.7863524962867810e-05 0.0016905098430373079 6.2397263424418824e-21 3.0150364455118462e-21 -1.4111242013905406e-21 0.0000000000000000 -87.333945182495100 -141.58874659118649 139.28801968872074 1877.7986991733408 0.0000000000000000 0.0000000000000000 0.0000000000000000 0.0000000000000000 3.0817414538952472 3.1650009156145402 1.0832675255025199 1.0408019600206895 634.08077757227375 633.25557907823895 1.0408013432397778 
-66.271487219741161 -164.04734096051718 137.48318796108433 -66.271487219741161 -164.04734096051723 137.48318796108438 -88.962628903632080 -5.8425852217824535e-16 -2.1549939667161491e-16 4.4304234112619215e-16 -1.5639652367610574e-31 1.1474113306708666e-07 4.1164575581564833e-08 2.7863524962867821e-05 0.0016283692170852861 1.3625372169144711e-20 6.3305586097475370e-21 -4.1391137698304691e-21 2.9897130728634349e-32 -65.754724465942374 -163.62432261291517 139.28801968872077 2018.1238718776010 0.0000000000000000 0.0000000000000000 0.0000000000000000 0.0000000000000000 3.0817167322567967 3.1649523620726567 1.0832436956346878 1.0408592129921379 623.62068038816835 624.35511970930759 1.0407899441920894 
-87.996918858984799 -164.04734096051718 121.39753842897767 -87.996918858984813 -164.04734096051715 121.39753842897777 -97.370961428659854 -4.1958346169078621e-16 -2.8828584791535529e-16 -2.3786488299772192e-16 0.0000000000000000 1.4720556437697319e-07 4.1164575581564826e-08 3.4772143661321309e-05 0.0017209954497695969 9.4804228907444848e-21 6.5447944752913250e-21 1.8516256309517798e-21 0.0000000000000000 -87.333945182495114 -163.62432261291505 123.64986896362312 1549.0027140339625 0.0000000000000000 0.0000000000000000 0.0000000000000000 0.0000000000000000 3.0820369447122618 3.1656034812178855 1.0835746790019096 1.0409144368669838 640.09928190485527 642.39189911757046 1.0409489230151321 
-87.996918858984799 -141.89858575342279 121.39753842897767 -87.996918858984813 -141.89858575342271 121.39753842897778 -87.759788968374451 -1.1280046041550238e-15 -4.4028975990550181e-16 4.3592640237499545e-17 0.0000000000000000 1.4720556437697321e-07 3.0150937913031577e-08 3.4772143661321309e-05 0.0016254322671509752 2.5253689424066154e-20 8.7559261108647720e-21 1.5722033025501533e-21 0.0000000000000000 -87.333945182495086 -141.58874659118649 123.64986896362313 1389.1126189879024 0.0000000000000000 0.0000000000000000 0.0000000000000000 0.0000000000000000 3.0817143971502823 3.1649317640669175 1.0832252763039383 1.0408835012703359 620.12920708259014 617.20423412524042 1.0407811601591133 
-45.575111245365598 -110.48301779876644 44.454248660281571 -45.575111245365591 -110.48301779876645 44.454248660281571 -127.09821415725352 2.7279029117444649e-16 5.0657863244990062e-16 -6.3437366142650035e-16 -127.13428480348027 8.3814430701378852e-08 1.4529294045662054e-08 6.7818483989512415e-05 0.0021610080565025399 2.3226449133629887e-21 -4.3061497791086078e-21 1.0760062323384185e-20 0.0020968948343609373 -45.197633928000002 -110.33371083599998 48.847122559999995 1069.0094105005942 0.0000000000000000 0.0000000000000000 0.0000000000000000 0.0000000000000000 3.0819481696763726 3.1654235985602166 1.0834835583024489 1.0409042452268746 690.72457112689870 690.60468928504702 1.0409051626264261 
-57.581915499383165 -98.921485562085465 41.758157612356328 -57.581915499383129 -98.921485562085451 41.758157612356321 -137.37399073464326 -3.2455400070211247e-16 5.3791560548999698e-16 -8.5981205625069665e-16 -137.85165784873072 1.0175625744790474e-07 8.7802257131563977e-09 6.8976426971012472e-05 0.0022827004353316960 1.1745624425030090e-20 -3.0151612520390568e-21 1.0265966860274174e-20 0.0024202087432874035 -57.123633070400032 -98.831257531200038 46.226036100800002 1475.5774262919704 0.0000000000000000 0.0000000000000000 0.0000000000000000 0.0000000000000000 3.0819465011949765 3.1654201947161336 1.0834818224214613 1.0409042452268744 709.98593696627847 710.02368057124465 1.0409043290947866 
-60.618358644727813 -105.71192067390551 53.108796718258951 -60.618358644727799 -105.71192067390551 53.108796718258958 -121.95453610986199 3.2414334582920107e-17 1.5791849392213685e-15 -1.4929426529374694e-15 -95.959872747403992 1.0629362920400176e-07 1.2156824158449098e-08 6.4101445872211116e-05 0.0021040673261239996 1.0633374895747483e-20 -1.5677754513860766e-20 3.0996752334957806e-20 0.0025583063727001752 -60.139641125599979 -105.58699381199996 57.260903223199996 1724.6135661994952 0.0000000000000000 0.0000000000000000 0.0000000000000000 0.0000000000000000 3.0819424768600361 3.1654120491822364 1.0834777007147074 1.0409042452268749 679.32993589372222 679.79509011357027 1.0409023499632419 
-19.608746010517095 -88.151248954394816 53.559508819474146 -19.608746010517102 -88.151248954394788 53.559508819474139 -123.32216334130642 -2.5062155124134746e-16 1.8889421847797636e-16 -1.2512758258914643e-15 -124.45325966413954 4.5012750582440475e-08 3.4246513958002822e-09 6.3907869731316666e-05 0.0021172798444899494 1.8685632469138566e-21 -1.1300498166820125e-20 2.7206788425825251e-21 0.0021239334186903816 -19.406020858399991 -88.116056368799974 57.699076624800000 1439.6451283969650 0.0000000000000000 0.0000000000000000 0.0000000000000000 0.0000000000000000 3.0819444846790680 3.1654160936774711 1.0834797374247178 1.0409042452268744 685.41968558243400 685.69693875062308 1.0409033280969546 
-59.246018647987285 -179.08820164603409 75.218152129173703 -59.246018647987285 -179.08820164603409 75.218152129173703 -120.88904078872199 -2.1395238853865430e-16 -2.7823488806367227e-16 -3.7843129930651561e-16 -123.54067820948397 1.0424293442334863e-07 4.8643757633026752e-08 5.4605708358579357e-05 0.0019267245466181142 4.9253847002486450e-21 1.6978656024959284e-21 1.0438492443724165e-20 0.0020885262243062761 -58.776536899199989 -178.58832514800000 78.755181813599989 1584.4809985467919 0.0000000000000000 0.0000000000000000 0.0000000000000000 0.0000000000000000 3.0820661239054847 3.1656645551840237 1.0836066089507972 1.0409042452268737 682.21555151632060 682.77359810466749 1.0409642815843532 
-75.039145286899398 -185.47532771320280 68.501892915144452 -75.039145286899398 -185.47532771320286 68.501892915144467 -125.23030502264874 -1.6430875674914864e-16 -2.3473431956418968e-16 -1.1619766462085059e-16 -125.78675789658358 1.2784269073917717e-07 5.1819812607600817e-08 5.7490271635707302e-05 0.0019828160205707982 1.9664178664604400e-21 8.3311824656456934e-22 3.3317635048542635e-21 0.0019407719833287465 -74.463376691600018 -184.94281327599995 72.225767276240006 1182.3928641350060 0.0000000000000000 0.0000000000000000 0.0000000000000000 0.0000000000000000 3.0819272504745392 3.1653783387106489 1.0834591798962196 1.0409042452268742 689.91286400307047 689.94704385389480 1.0408934463780783 
-70.280516599335954 -212.25783726775111 83.279502871987503 -70.280516599335940 -212.25783726775109 83.279502871987489 -122.58826410300186 2.4143737932536509e-17 5.5787689049454163e-17 -3.8703133904166501e-16 -122.38817754876096 1.2073184538219370e-07 6.5137612581533930e-08 5.1143442301615494e-05 0.0019419850721905786 1.6348251137263383e-22 4.8140841089213679e-22 3.2107820058493349e-21 0.0019509386693375432 -69.736773305200003 -211.58846536000007 86.592267764799999 1391.6778601551057 0.0000000000000000 0.0000000000000000 0.0000000000000000 0.0000000000000000 3.0819755783388634 3.1654821574993766 1.0835147493441326 1.0409042452268737 683.50269895075496 683.38104229826683 1.0409201534430728 
-87.473293805982379 -207.92112811874168 87.101695802450564 -87.473293805982379 -207.92112811874173 87.101695802450564 -120.37200229310348 2.0194254769377337e-16 -9.3663006901656908e-17 -4.6020171114879778e-16 -125.92525229096348 1.4642310738888220e-07 6.2981160231512234e-08 4.9501850305055939e-05 0.0019295080224910016 -2.3603428212940418e-21 1.8094608672007679e-21 -2.2927565966324310e-21 0.0019541914611696872 -86.813844096400004 -207.27391660800001 90.308128229600001 1955.0875990986240 0.0000000000000000 0.0000000000000000 0.0000000000000000 0.0000000000000000 3.0820315048150779 3.1655938575144327 1.0835705171192449 1.0409042452268735 683.10896105965082 683.28201607646474 1.0409469424009397 
-74.948773302570643 -213.25983559606192 97.746795327022269 -74.948773302570643 -213.25983559606192 97.746795327022269 -117.02888969402159 -2.8921738707611045e-17 2.2855158412023755e-17 -1.2431547651619881e-16 -118.75894805676448 1.2770764087899344e-07 6.5635857360302197e-08 4.4929891103606672e-05 0.0018871768120659865 6.5886249734127392e-22 -2.8367986271755757e-22 9.6244188972500582e-22 0.0019030240999339248 -74.373612905599998 -212.58534351999998 100.65708370800000 988.41240310934302 0.0000000000000000 0.0000000000000000 0.0000000000000000 0.0000000000000000 3.0820365415170112 3.1656075031862412 1.0835791663290923 1.0409042452268717 676.61072962292690 676.68243064000717 1.0409511042835660 
-66.271487219741161 -186.19609616761156 105.31188889687098 -66.271487219741161 -186.19609616761142 105.31188889687105 -109.59786819398339 4.5708979006265847e-17 -5.3313825911153825e-16 -7.2316325655911229e-16 -4.5039385193304864e-30 1.1474113306708669e-07 5.2178213250098082e-08 4.1680762332241272e-05 0.0018228226602103200 5.0063255279113926e-22 1.2551103263190742e-20 9.5222860836415438e-22 9.0534366480560803e-31 -65.754724465942374 -185.65989863464350 108.01171823852535 1808.0980320372519 0.0000000000000000 0.0000000000000000 0.0000000000000000 0.0000000000000000 3.0816076675073525 3.1647181806000320 1.0831183896239487 1.0408151737003304 660.13273114239576 659.57886724797550 1.0407297031238365 
-84.098092225986520 -209.01341951675059 106.35405616457750 -84.098092225986520 -209.01341951675062 106.35405616457750 -112.59845289683686 7.4981409417387116e-17 -8.8068583603041145e-17 -5.2750633638415382e-16 -111.06451060004973 1.4137951651060909e-07 6.3524290883076886e-08 4.1233162364484592e-05 0.0018521209226950233 -1.4892005740187071e-21 8.1860323456909998e-22 5.1261876682988910e-21 0.0018494824747229222 -83.461357431600007 -208.36062644399999 109.02489266960001 1287.0831768928649 0.0000000000000000 0.0000000000000000 0.0000000000000000 0.0000000000000000 3.0820646844345885 3.1656635931141932 1.0836071076246621 1.0409042452268733 665.12749376674117 665.93600844154469 1.0409645186568357 
-41.911663293234255 -130.29682711517546 61.845603708999917 -41.911663293234255 -130.29682711517540 61.845603708999910 -104.71813216262525 3.9657113498962707e-16 3.4492932842647655e-16 -8.2424938190299554e-16 -105.31156663234636 7.8340116976827190e-08 2.4381868468648094e-08 6.0349078411903179e-05 0.0018905030225806246 -1.9595563396032301e-21 6.9174862572289580e-23 1.7132103520501932e-20 0.0020611588186932638 -41.558840772800004 -130.04627243999997 65.754654395919971 2180.9238908936368 0.0000000000000000 0.0000000000000000 0.0000000000000000 0.0000000000000000 3.0819722666684268 3.1654726829184625 1.0835085521137147 1.0409042452268744 654.79058088478246 654.72052051656203 1.0409171633036520 
-23.013738416683388 -134.71826267650343 51.715115360647381 -23.013738416683392 -134.71826267650343 51.715115360647374 -115.82016936413206 2.6720375529635320e-16 1.4259176829046251e-16 -3.2346628624458268e-16 -116.32651149986613 5.0100847748257855e-08 2.6580457890279519e-08 6.4700017477825611e-05 0.0020170590045274568 -1.4306926423629312e-21 1.2188919208665212e-21 3.6547980754845928e-21 0.0019966727254265922 -22.788097858800000 -134.44511465599999 55.905993737599999 935.86986824075086 0.0000000000000000 0.0000000000000000 0.0000000000000000 0.0000000000000000 3.0819318218434866 3.1653902253599604 1.0834665276314379 1.0409042452268740 671.19467260914200 671.07814404221619 1.0408969858106225 
-11.171713802294411 -103.71717032954129 58.095257751956673 -11.171713802294413 -103.71717032954126 58.095257751956666 -114.92746217571828 -2.4032399033044747e-16 -9.2610239535304236e-17 -1.1546502086518187e-15 -113.68519543838512 3.2405249775213640e-08 1.1164919044848176e-08 6.1959812874157194e-05 0.0020081434769832194 5.7531693385929711e-22 -6.4410326060652005e-21 3.0480114523227909e-21 0.0020023587617081901 -11.025769398400001 -103.60243655599999 62.108642139439993 1284.9349949311236 0.0000000000000000 0.0000000000000000 0.0000000000000000 0.0000000000000000 3.0819397344303918 3.1654064345481405 1.0834748274904771 1.0409042452268749 672.47120505589942 672.55214391964125 1.0409009707044663 
-29.261945431502081 -141.06991309664338 66.285719531524251 -29.261945431502081 -141.06991309664338 66.285719531524251 -103.69251071083301 3.2619473142193230e-16 4.3469931252304008e-16 -9.0594541159211132e-16 -102.04231661066545 5.9437578053822562e-08 2.9738863871475729e-08 5.8442094982957813e-05 0.0018625824658575654 -3.3073837685086684e-21 1.5821774827033718e-21 1.5546808431479856e-20 0.0020764448378408702 -28.994254794799993 -140.76430841599998 70.071247290159988 2176.9829965296321 0.0000000000000000 0.0000000000000000 0.0000000000000000 0.0000000000000000 3.0819874413403379 3.1655039245765195 1.0835246271019316 1.0409042452268737 649.16919132104692 649.49325106748745 1.0409248800036703 
-104.17826590029048 -194.63323390348867 90.940786325372812 -104.17826590029048 -194.63323390348867 90.940786325372798 -116.53214104732614 -8.1768928082527067e-17 1.1170290871663515e-18 -3.7802827377612364e-16 -120.31625437964803 1.7138542393602130e-07 5.6373655576980035e-08 4.7853000972430948e-05 0.0019045305460690873 8.5462998733321506e-22 -2.0097163704697280e-21 2.3654470467237700e-22 0.0018821721420921819 -103.40639267600000 -194.05392295999994 94.040416199999996 2662.2783756828549 0.0000000000000000 0.0000000000000000 0.0000000000000000 0.0000000000000000 3.0820182078018701 3.1655692781834133 1.0835592572812227 1.0409042452268737 674.04837713449240 674.11192919749635 1.0409415365186512 
-83.138779498944629 -162.71760579416147 74.237584701721502 -83.138779498944601 -162.71760579416147 74.237584701721502 -118.31539830256621 -5.3559037289987036e-16 -4.4917504185123028e-16 -6.6975427110309912e-16 -116.47769426462278 1.3994601352762534e-07 4.0503353726517595e-08 5.5026851842221447e-05 0.0019361507683219813 7.3951512871408327e-21 4.9406806928109307e-21 1.9306476369066470e-20 0.0022561861443240617 -82.508500824799995 -162.30138233600007 77.801893530400037 2229.3857910936085 0.0000000000000000 0.0000000000000000 0.0000000000000000 0.0000000000000000 3.0820710833351366 3.1656750359977632 1.0836121319688319 1.0409042452268737 676.74892862638580 677.33201093110415 1.0409669383645763 
-28.251988911827961 -125.28701934810202 125.41895081200434 -28.251988911827969 -125.28701934810206 125.41895081200435 -61.949779437606779 -4.1890987371333237e-16 9.3436330061431425e-17 1.3098593999409769e-15 -1.8831018901127451e-30 5.7928394692208236e-08 2.1890702639471019e-08 3.3044988978936374e-05 0.0013169515353579451 1.2974214724449318e-20 -1.9979223834733194e-21 -9.7423204509202321e-21 3.6539894754459406e-31 -27.991095225219734 -125.06206457489009 127.55940664489751 1124.7619503421174 0.0000000000000000 0.0000000000000000 0.0000000000000000 0.0000000000000000 3.0818280646385254 3.1651743309548253 1.0833543071636591 1.0409412818255273 571.02448600485729 571.01629189760922 1.0408430475772912 