# For a description of the Tecplot format see the Tecplot User's guide.
#
Variables=x,y,z,s_u,s_v,s_w,s_p,mono_f_vel_u,mono_f_vel_v,mono_f_vel_w,const,u_nu,v_nu,w_nu,p_nu,x_nu,y_nu,z_nu,const,u_ref,v_ref,w_ref,vol_ref,x_ref,y_ref,z_ref,const,I1,I2,I3,J,p1,p2,p3
Zone f=fepoint, n=1339, e=6475, et=brick, c=black
-59.3175 -70.3966 175.314 -59.317524694748315 -70.396613248468057 175.31443127105965 142.42814556006854 1.1151977928232093e-06 3.3406805644746242e-06 -5.1432453235064862e-06 140.68559305159982 -1.0754046264604966e-09 4.2219117091235603e-11 -5.0613128443899324e-07 0.0016765808270157048 9.9698220490118031e-12 1.0403371103063422e-12 -6.6827278710861458e-12 0.0016757242217099978 -58.668039002000000 -70.473359259200009 176.35421013599998 215.13583165143561 0.0000000000000000 0.0000000000000000 0.0000000000000000 0.0000000000000000 3.1131632074000817 3.2291862582231632 1.1160435329408656 1.0572133708828413 189.86185061045180 189.86186791123097 1.0564321173294735 
-65.671707488570817 -76.380197001787877 183.29141987369451 -65.671707488570831 -76.380197001787877 183.29141987369445 154.05780894131615 -9.3475294080049177e-06 1.0936731558278619e-05 -1.4420797481752738e-05 152.87923915690681 -1.1732674554121303e-09 1.8965828907369090e-11 -3.5684478394415464e-07 0.0016670782333844429 1.8184729710959189e-11 -1.8179363351102388e-11 1.9573422186240579e-11 0.0016708659410142217 -64.963123215600007 -76.414687385200040 184.02450960799996 253.42820447565578 0.0000000000000000 0.0000000000000000 0.0000000000000000 0.0000000000000000 3.1116126115947842 3.2259610919096762 1.1143671973520495 1.0572133708828406 163.69862843119105 163.69862614650916 1.0556408234055572 
-70.416305134561668 -71.515300312034569 176.23217777554197 -70.416305134561654 -71.515300312034569 176.23217777554194 143.14473824054804 3.0813280344281462e-06 3.5193354313060536e-06 -4.7943519784072834e-06 144.31583754854373 -1.2463236831461444e-09 3.7866487723192677e-11 -4.8895600723852795e-07 0.0016848924636773920 5.9521388253544128e-12 -1.5645168107377271e-12 2.8388014458292245e-12 0.0016842149041758475 -69.663592608799988 -71.584146237200002 177.23667228800005 218.29881668600640 0.0000000000000000 0.0000000000000000 0.0000000000000000 0.0000000000000000 3.1110147735934812 3.2247538937855187 1.1137578340462162 1.0572133708828424 179.89570524701961 179.89570823913664 1.0553534808950789 
-57.800380415682781 -87.772737219337444 170.44380002822089 -57.800380415682810 -87.772737219337472 170.44380002822081 137.41683403487281 4.5425314834563814e-06 -3.8459533725142464e-06 -1.6376313064593787e-05 0.0000000000000000 -1.0520459781115932e-09 -2.5282997917486227e-11 -5.9728344670162414e-07 0.0017027170397626418 5.0998739425476766e-12 2.4109814289681223e-11 5.3125923600235443e-11 0.0000000000000000 -57.165005282198301 -87.726774323660578 171.67083873969227 259.76550921814646 0.0000000000000000 0.0000000000000000 0.0000000000000000 0.0000000000000000 3.1216732543165864 3.2467883906722541 1.1251430830308988 1.0599004447400042 226.80782632768501 226.80775871226521 1.0607238536167600 
-89.831634117822446 -83.392955579010803 113.70443859115136 -89.831634117822446 -83.392955579010788 113.70443859115132 146.35619137487768 1.1289502480271613e-05 -1.6176908282043817e-05 -1.6905675828573653e-07 0.0000000000000000 -1.5453260615583275e-09 -8.2621687269579525e-12 -1.6591405040955463e-06 0.0020913914168210644 -1.7701071605844004e-10 4.2722281935648742e-11 1.0782026837961184e-10 0.0000000000000000 -88.898344731952406 -83.377922378373768 117.11292023788836 283.91631954144174 0.0000000000000000 0.0000000000000000 0.0000000000000000 0.0000000000000000 3.1239515651510881 3.2518449100248099 1.1279283774844304 1.0609678969432135 210.33836254963077 210.33857507776696 1.0620347390368428 
-98.610633332833544 -66.799552443863121 104.45610143217006 -98.610633332833558 -66.799552443863135 104.45610143217006 156.52774747897504 6.9032097812642523e-06 9.6604449202213223e-06 -1.4383502415573743e-05 153.93264984734790 -1.6805285774079694e-09 5.6185167629507760e-11 -1.8322198576115054e-06 0.0023762851455476660 8.2436485849921616e-12 -6.8213237867640424e-11 5.0050262487716687e-10 0.0023588293202188755 -97.595692787999965 -66.901700632800015 108.22015140479995 322.25788568967050 0.0000000000000000 0.0000000000000000 0.0000000000000000 0.0000000000000000 3.1109692678425449 3.2245350304153817 1.1135825328911131 1.0572133708828397 158.46234196579937 158.45266983414214 1.0552724339074033 
-80.509115943631301 -67.433780855479910 104.86723144165479 -80.509115943631301 -67.433780855479895 104.86723144165485 146.47841403175093 4.1192427426360842e-06 4.7608426749891285e-06 -1.2347904557175149e-06 0.0000000000000000 -1.4017624561102335e-09 5.3729909410549226e-11 -1.8245257056292985e-06 0.0023445230863363398 3.9250668651276123e-11 6.9635967740477851e-11 4.3069439109012194e-10 0.0000000000000000 -79.662532843379708 -67.531450170133141 108.61547480962874 295.38956150422752 0.0000000000000000 0.0000000000000000 0.0000000000000000 0.0000000000000000 3.1187912934691862 3.2409154400487115 1.1221512553351116 1.0592172799172344 200.19707327122487 200.20122182750887 1.0593122588946751 
-95.463457372317436 -81.843595281147131 104.87849801126684 -95.463457372317421 -81.843595281147131 104.87849801126684 157.70580842533693 1.0515345663683608e-05 8.4895327728681110e-06 1.7968507629266748e-07 0.0000000000000000 -1.6320500229038970e-09 -2.2546409184087679e-12 -1.8243148609542459e-06 0.0024310109197743512 -1.7159529541217517e-11 2.2313096564978663e-10 6.3272943669281490e-10 0.0000000000000000 -94.477787882002133 -81.839503548705352 108.62630821647583 293.80807890400462 0.0000000000000000 0.0000000000000000 0.0000000000000000 0.0000000000000000 3.1199782638921914 3.2434552138284878 1.1235060831999564 1.0596493031200880 180.26168183287669 180.25454394134974 1.0599494375855931 
-47.738145972831660 -126.32489628544423 136.07229388499434 -47.738145972831695 -126.32489628544417 136.07229388499439 52.441996465497276 6.6416157654237701e-06 -9.6656194580214176e-06 -1.4956126541224001e-05 0.0000000000000000 6.8001232437965941e-07 3.5636151463930842e-07 1.9225769367901173e-07 0.0016806447061737100 3.9447738107513637e-11 2.6947982886051354e-11 2.9537847822929945e-11 0.0000000000000000 -47.292355390977058 -125.96433165720771 138.67232254046354 244.31333887135355 0.0000000000000000 0.0000000000000000 0.0000000000000000 0.0000000000000000 3.1015203981604502 3.2045756306959601 1.1030613446081392 1.0502600077058077 299.44787332623332 299.44799425052594 1.0502668703653264 
-34.581620287290761 -140.84366342547284 136.68218510754673 -34.581620287290768 -140.84366342547276 136.68218510754664 52.322081464808861 -8.7770508118011532e-06 5.2957426112207610e-06 -3.4930348302952081e-06 0.0000000000000000 2.9790203055359378e-07 4.1001297202338270e-07 -6.4952779788817198e-07 0.0016767571440728401 -2.9873731637939813e-11 2.8194570730184459e-10 -2.0521627776572156e-10 0.0000000000000000 -34.196989160350306 -140.43319657724166 139.21506628885933 210.16870282748488 0.0000000000000000 0.0000000000000000 0.0000000000000000 0.0000000000000000 3.1043384442556552 3.2105644103812616 1.1062350702773249 1.0518446862789748 305.08777237340837 305.08779605019737 1.0517787838460786 
-31.337480583969153 -127.97097590323742 140.34437990083379 -31.337480583969175 -127.97097590323747 140.34437990083373 58.076831849769931 -6.1281994632476711e-06 -7.2704471124383528e-06 -3.1249123063479348e-06 0.0000000000000000 -6.4451458059444643e-10 -1.8142876090365692e-10 -1.1605834275840719e-06 0.0015370823508524803 8.6687826786647210e-11 8.7665238821406824e-11 -2.1287940792790541e-10 0.0000000000000000 -30.948229910445860 -127.64113600963313 142.72864290474456 229.21992526850030 0.0000000000000000 0.0000000000000000 0.0000000000000000 0.0000000000000000 3.1065226100997867 3.2151308647933510 1.1086190341237390 1.0528813457310253 306.28042355416807 306.28038138634491 1.0529058662350910 
-48.863765877483722 -131.29677333853112 144.60128370819496 -48.863765877483722 -131.29677333853121 144.60128370819487 51.921145972479657 -2.5602310536214075e-06 -1.4806265529892909e-05 1.0908917923747772e-05 0.0000000000000000 5.9120281090767212e-07 2.4887056920525591e-07 6.5429873356864973e-08 0.0016375896607768203 -4.8276691862144209e-11 -1.3156125600160058e-10 2.1095727173593972e-10 0.0000000000000000 -48.406431667502837 -130.90513559487593 146.85896726379221 225.63426853136377 0.0000000000000000 0.0000000000000000 0.0000000000000000 0.0000000000000000 3.0996026609689697 3.2007485336363102 1.1011522536446980 1.0499799333588808 296.34817869321267 296.34765511289146 1.0493588596135057 
-53.595366218266008 -85.014261875942324 72.843788933898509 -53.595366218266008 -85.014261875942324 72.843788933898466 149.33487134326234 1.3027139093649522e-05 -2.2071892471854976e-05 0.00014745901454379367 0.0000000000000000 1.5405142777560194e-07 2.9040936834712022e-06 1.8811328715644975e-06 0.0060090110372001734 6.4605351031015941e-10 1.0432510443974186e-08 3.3467559556777033e-09 0.0000000000000000 -53.009977022357148 -84.940192361847963 77.707205907375524 356.07450292316213 0.0000000000000000 0.0000000000000000 0.0000000000000000 0.0000000000000000 3.1194414457377651 3.2420518076032230 1.1226345971441420 1.0589835754487431 218.26765236609057 218.26766015978532 1.0595315379460042 
-40.777635456390819 -85.696225472467816 62.135548971646024 -40.777635456390826 -85.696225472467816 62.135548971646067 185.01308702208169 1.4488254550393246e-05 -1.0927596835760868e-05 2.8485102419052452e-05 0.0000000000000000 3.1400105454040151e-07 4.0947648226890769e-07 -2.4963124038919862e-06 0.0051572331073242274 9.6584260850453820e-10 5.9386149958006296e-10 -2.0313344539387673e-09 0.0000000000000000 -40.313282635619565 -85.652866469445740 67.489144002613742 334.72004880612383 0.0000000000000000 0.0000000000000000 0.0000000000000000 0.0000000000000000 3.1195483226151124 3.2420565083469439 1.1225287726676845 1.0588237446899569 145.52748187612448 145.52748624329664 1.0594924046508429 
-43.439046127481973 -94.227551982550509 78.598590848638850 -43.439046127481987 -94.227551982550551 78.598590848638864 126.17508492300898 -3.9305451224261098e-05 -8.8884247215627175e-06 3.3471777342524102e-05 0.0000000000000000 7.9562451688594516e-07 -1.1992365858829918e-06 2.5195571457252045e-06 0.0049194680897998080 3.6302250274169873e-09 -1.8666009126964163e-09 6.1484651196484711e-09 0.0000000000000000 -42.930125987095458 -94.071309017270835 83.274511392489799 283.94561953274422 0.0000000000000000 0.0000000000000000 0.0000000000000000 0.0000000000000000 3.1187231272100231 3.2406161837987066 1.1219165789006349 1.0587005279495012 235.78967495830810 235.78958837195268 1.0592023856672090 
-45.467000926487508 -99.095641537650351 62.643970081094572 -45.467000926487501 -99.095641537650394 62.643970081094544 172.49683148500333 3.7516743136330919e-05 -5.2118289308891430e-05 3.8795547941851069e-05 0.0000000000000000 -8.6211124350477064e-10 -6.9265038149524116e-11 -2.6147191016789861e-06 0.0055905422745731676 1.3800421414751364e-09 -8.5028390531239614e-10 -3.7377350091254946e-09 0.0000000000000000 -44.946335306532468 -98.969717126470769 68.015559797458934 339.42980011114588 0.0000000000000000 0.0000000000000000 0.0000000000000000 0.0000000000000000 3.1193126483176603 3.2416002011433664 1.1223081193811175 1.0589647955836325 151.58356053592695 151.58357016076064 1.0593881922694175 
-36.115357882769317 -100.99802913036359 70.318125565196326 -36.115357882769324 -100.99802913036363 70.318125565196340 142.80330479666765 -6.4517521169607879e-06 -1.3154750951974622e-05 2.2627488200630206e-05 0.0000000000000000 5.8158745534743543e-07 -9.9861905215892999e-07 -1.1770958239120877e-06 0.0045295632975668378 1.7998858691717909e-09 -1.7027540768021451e-09 1.0904004002361464e-09 0.0000000000000000 -35.672109309640206 -100.83293553867907 75.360366609178811 338.44965823895870 0.0000000000000000 0.0000000000000000 0.0000000000000000 0.0000000000000000 3.1213060946902975 3.2457215509722066 1.1244372343737512 1.0592711960883192 220.23027657659870 220.23026423007499 1.0603939368401425 
-49.534287439932598 -112.21061820146365 59.906298730509931 -49.534287439932591 -112.21061820146362 59.906298730509924 145.15759483167488 -8.6508095554449416e-06 -3.7926773374941388e-05 4.1611284822457610e-05 137.99608838589003 -9.2474258805985709e-10 -1.2021550421792424e-10 -2.6659536480622137e-06 0.0043635270209343947 4.7058833403051638e-12 -4.5191148090013305e-10 5.4487248497594012e-10 0.0045087775753914292 -48.975793059600008 -111.99207679200002 65.383142959360015 326.57209562220959 0.0000000000000000 0.0000000000000000 0.0000000000000000 0.0000000000000000 3.1139708254318923 3.2308995195339043 1.1169505255205510 1.0577120310350498 190.36635052208334 190.36615680263961 1.0568554566276389 
-25.575194022108803 -110.68967193967482 62.076239251207618 -25.575194022108803 -110.68967193967489 62.076239251207625 149.19597733839788 -2.2999350594410776e-06 -1.3666996307447136e-05 2.3083665066186143e-05 0.0000000000000000 -5.5577725754929475e-10 -1.1430600910244945e-10 -2.6253439768808562e-06 0.0038479883882139455 1.3562551393673362e-10 -5.3353037904836237e-10 4.6391269192339551e-10 0.0000000000000000 -25.239536857883341 -110.48187134057846 67.469656361758609 349.35568362690350 0.0000000000000000 0.0000000000000000 0.0000000000000000 0.0000000000000000 3.1167084536087337 3.2364421476603802 1.1197559115109430 1.0580513552634527 189.82920482058060 189.82934225955592 1.0581836370770816 
-44.588346231876343 -111.48199750838603 71.418150877573211 -44.588346231876351 -111.48199750838603 71.418150877573211 118.46946632286033 -1.3498006695495314e-05 1.4808127107702433e-06 2.1082883755366738e-07 0.0000000000000000 -8.4857584847775058e-10 -1.1737677496626020e-10 -2.4505134170738074e-06 0.0037575457102406924 -4.1328632089101266e-10 5.0188277674203946e-10 1.8626808745539791e-09 0.0000000000000000 -44.075852747763513 -111.26860156453857 76.452402029906395 268.59635586333832 0.0000000000000000 0.0000000000000000 0.0000000000000000 0.0000000000000000 3.1135029506921410 3.2295446519291988 1.1160558281017368 1.0586737722213642 233.04856775863760 233.04898479586515 1.0564335572156047 
-58.806296939382456 -106.93754594003073 101.48228603698951 -58.806296939382477 -106.93754594003074 101.48228603698952 46.457889562373545 -1.7278174893527255e-05 -4.8395697985414807e-05 -9.7455206970836955e-06 0.0000000000000000 5.8187593989098978e-07 -3.5034843065361407e-07 2.1532472194212437e-06 0.0019534391401989123 -6.2464454510750653e-11 -3.5746210433261005e-10 1.1508398131841099e-09 0.0000000000000000 -58.254647241440821 -106.62760994408018 105.33920711112118 241.62621693813244 0.0000000000000000 0.0000000000000000 0.0000000000000000 0.0000000000000000 3.0964441368379600 3.1945144578519247 1.0980771613339726 1.0489081052198321 298.54042866332310 298.54047516240809 1.0478907410462446 
-64.989300292074901 -90.278899860555654 92.534639719790533 -64.989300292074873 -90.278899860555626 92.534639719790505 96.975171938791846 2.5330787811050763e-05 -2.7936892677939809e-05 -2.3223797526604440e-05 0.0000000000000000 8.2471514802432733e-07 -7.5290666505724340e-07 2.3012811873030399e-06 0.0025939219373576935 2.6902244531428504e-09 -1.4704667784457856e-10 -3.1189636340323140e-10 0.0000000000000000 -64.370648572599308 -90.090304358695661 96.688480747766732 239.98138923263960 0.0000000000000000 0.0000000000000000 0.0000000000000000 0.0000000000000000 3.1096239885806018 3.2217906100274125 1.1121818838469899 1.0562943901183059 262.99983533594246 262.99981068577409 1.0545927373475303 
-76.603581625656062 -99.932838353894994 97.337658416192568 -76.603581625656076 -99.932838353895008 97.337658416192539 85.637055273150068 4.4587484959486711e-05 -5.1344130930844137e-05 1.0082955813702108e-05 0.0000000000000000 8.5904386375319803e-07 -2.6369133816624073e-07 1.6604020450708540e-06 0.0026475227832698793 6.0418351574051982e-10 -7.0538916305996283e-10 1.6154248953265192e-09 0.0000000000000000 -75.913673002404863 -99.702254402691466 101.32606574872912 288.13617662859207 0.0000000000000000 0.0000000000000000 0.0000000000000000 0.0000000000000000 3.1057503051833915 3.2138776662836892 1.1081397825612211 1.0541143719048045 266.05112791950700 266.05116667755470 1.0526839909424934 
-55.704905721104396 -93.809036262471594 99.409595728453226 -55.704905721104375 -93.809036262471622 99.409595728453212 87.311747984299345 2.1781849472441834e-06 -1.8121688663642847e-05 -7.3229612496856524e-06 0.0000000000000000 3.3900449204023851e-07 -6.9119210571862476e-07 2.3231860091803596e-06 0.0021371960349491769 -3.3922189672891301e-10 6.8905685594630770e-10 -5.0900246054367387e-10 0.0000000000000000 -55.164710769962618 -93.586508083202432 103.32606452766413 222.68531933077850 0.0000000000000000 0.0000000000000000 0.0000000000000000 0.0000000000000000 3.1080606041276870 3.2188793148973209 1.1108389597886761 1.0542416525570890 255.73728090500387 255.73725438324439 1.0539660725753279 
-46.291108247282743 -176.56883970841403 153.78150561966109 -46.291108247282729 -176.56883970841406 153.78150561966103 53.443704208176847 1.9919236484919721e-05 2.6195154893018099e-05 -4.8058984014257934e-05 0.0000000000000000 -8.7480286903307548e-10 -3.7020075893678950e-10 -9.0911238981306042e-07 0.0018295373847246204 -2.7094124713182395e-10 -2.0187468251575507e-10 4.0502598599560999e-10 0.0000000000000000 -45.762777822239421 -175.89580528354742 155.64915507299250 248.91339099022119 0.0000000000000000 0.0000000000000000 0.0000000000000000 0.0000000000000000 3.1042818922582289 3.2110088563529886 1.1067431931379306 1.0536642868483528 326.03847369410062 326.03706843530682 1.0520150955760956 
-52.017081646784412 -186.30459905559715 166.78604654634620 -52.017081646784398 -186.30459905559715 166.78604654634617 68.257493090086555 1.4321454054168612e-06 1.8434104214852688e-06 2.8254974005809879e-07 70.585307427801453 -9.6298183316356735e-10 -4.0803893597285423e-10 -6.6573698909166989e-07 0.0016152571195286343 5.3784054791328790e-11 3.6298814242760695e-11 3.4034289612403863e-11 0.0016083266135273019 -51.435495451599998 -185.56281141599996 168.15371392000000 294.81703600272857 0.0000000000000000 0.0000000000000000 0.0000000000000000 0.0000000000000000 3.1157068769183573 3.2344156207956307 1.1187308013869293 1.0570988741437752 323.77600722267573 323.77562002045210 1.0577026649054202 
-43.165912065864092 -171.82976186973673 164.81921419174014 -43.165912065864077 -171.82976186973670 164.81921419174017 65.893407815165972 6.8050611209623642e-07 -1.3747801813050349e-06 -1.8779797596922930e-05 0.0000000000000000 2.9431296336640087e-09 -1.5828496402008465e-07 -5.7709110248986368e-07 0.0016415014341957049 -1.0633089878006270e-10 -1.6690108120466339e-11 -6.9124634748055800e-11 0.0000000000000000 -42.672974891599750 -171.18173466392949 166.26923354793541 271.88244999766295 0.0000000000000000 0.0000000000000000 0.0000000000000000 0.0000000000000000 3.1143058536182009 3.2315028510567694 1.1172174136483546 1.0563710363669279 323.72693295436966 323.72725186315341 1.0569856129159338 
-60.038930216560139 -178.70550680746962 155.96699139133227 -60.038930216560161 -178.70550680746962 155.96699139133219 76.695859525704066 2.3490684700232784e-05 4.3032765800119645e-06 1.6360427769314608e-06 0.0000000000000000 -1.0865209565391609e-09 -3.7851410894518267e-10 -8.6821177447404796e-07 0.0017242247031619715 1.1375637838032598e-10 -4.7291495399314309e-11 1.8936131228868378e-11 0.0000000000000000 -59.382734921100123 -178.01738339707751 157.75061606229067 243.94852352315442 0.0000000000000000 0.0000000000000000 0.0000000000000000 0.0000000000000000 3.1147405051195012 3.2324892603969300 1.1177709334644250 1.0564905259786881 302.69686282445679 302.70224214416908 1.0572485363908573 
-31.030854839945338 -102.92808022564024 91.102421129805748 -31.030854839945352 -102.92808022564027 91.102421129805805 70.245386466468759 -2.3970616016178171e-05 -2.1475433226016049e-05 7.4006610338006869e-05 0.0000000000000000 -1.5834827438176055e-07 -2.9478099684867212e-07 -1.8670266204925522e-07 0.0029747032055484506 -5.4806091395714984e-10 2.6436990974181658e-09 3.7226749377969534e-10 0.0000000000000000 -30.660097366607719 -102.72526557899965 95.328291536857705 204.58703120518373 0.0000000000000000 0.0000000000000000 0.0000000000000000 0.0000000000000000 3.1076864334841034 3.2179509044890993 1.1102802140521815 1.0542880382715207 293.86850651098126 293.86764065933244 1.0536951077729693 
-19.079463636810267 -111.11676785024244 88.995580182857537 -19.079463636810264 -111.11676785024245 88.995580182857509 90.866503627151175 -1.0114313651826120e-05 -4.0098839254875017e-06 4.6040452180002446e-05 0.0000000000000000 -4.5573966822587414e-10 -1.1595535642783261e-10 -2.1215580385813841e-06 0.0030105710464263967 1.4916346457967990e-09 -4.9580048084830952e-11 -4.8391398544705928e-10 0.0000000000000000 -18.804221549666405 -110.90595113131390 93.354036648627854 267.24800799435923 0.0000000000000000 0.0000000000000000 0.0000000000000000 0.0000000000000000 3.1141931238269218 3.2313200262473312 1.1171478740394003 1.0567357259390007 270.50345687241878 270.50177963262922 1.0569550627799211 
-34.232364151650451 -104.91480273820090 80.380675355910526 -34.232364151650465 -104.91480273820085 80.380675355910583 108.95641667242782 1.5278346505268370e-06 -1.4445386222032950e-05 3.6312826452223003e-05 0.0000000000000000 -2.9228422818761399e-07 -7.7207401952194464e-07 -3.7477356374057220e-07 0.0031312313116435564 -1.0713853348402571e-09 -1.2561122706860451e-10 1.8591086980393770e-10 0.0000000000000000 -33.815892125380543 -104.71065599625929 85.007910193808286 270.69679205096202 0.0000000000000000 0.0000000000000000 0.0000000000000000 0.0000000000000000 3.1201298871826326 3.2432611985973332 1.1231514409516621 1.0583908929898518 262.12107602477414 262.12131617950848 1.0597853667447772 
-19.197523856423210 -100.51563343278183 91.121335891299253 -19.197523856423214 -100.51563343278184 91.121335891299225 83.546247843498293 8.0942106219837947e-06 -1.1648505007772639e-05 2.6618810644406756e-05 0.0000000000000000 -4.5756057276413752e-10 -7.4778849779022494e-11 -2.0817752819368707e-06 0.0027249422484817249 5.5122120156989332e-10 3.4880069627946433e-10 2.9370578488907943e-10 0.0000000000000000 -18.921183722278450 -100.37968114352928 95.398064000337470 185.31956687594098 0.0000000000000000 0.0000000000000000 0.0000000000000000 0.0000000000000000 3.1134828979363931 3.2300188026738419 1.1165599619805702 1.0567825129670168 284.90109734342423 284.90161281231065 1.0566781070720315 
-31.522269781295009 -118.26490607494610 171.99928017362626 -31.522269781294998 -118.26490607494603 171.99928017362620 97.398841516535882 -2.7311333704753412e-05 -9.6022158571872684e-06 -3.5803056331215486e-05 0.0000000000000000 1.9669192700665056e-07 1.0011400314758861e-07 -5.9028915829340495e-07 0.0018605472263510162 5.8266753344135376e-12 3.1943562499754155e-10 9.9081368963186176e-11 0.0000000000000000 -31.124431206993112 -117.97934695114738 173.21200361760444 258.17126679857051 0.0000000000000000 0.0000000000000000 0.0000000000000000 0.0000000000000000 3.1131681189969909 3.2291937481865833 1.1160450379297233 1.0560200702908247 263.63228233254927 263.63231320340378 1.0564312640996076 
-31.025092317188463 -133.51805567707814 163.28586221138343 -31.025092317188438 -133.51805567707822 163.28586221138349 72.915634127970847 -3.6557348802567683e-05 8.3212528691173152e-06 -2.6460994421864470e-06 0.0000000000000000 3.0072397541250417e-07 -7.2065274885472684e-08 -7.4474519852169013e-07 0.0016922790217633685 2.1811924250220625e-10 -1.1462702654496858e-10 -7.6833129936739868e-11 0.0000000000000000 -30.642131568542830 -133.13454878399213 164.80820313575899 262.24283076768535 0.0000000000000000 0.0000000000000000 0.0000000000000000 0.0000000000000000 3.1094237646228926 3.2213564687823459 1.1119485188397060 1.0541623215242981 291.83333716159899 291.83330091047355 1.0544873403920614 
-43.140440940632786 -120.45743191182821 162.07850394385946 -43.140440940632772 -120.45743191182825 162.07850394385957 53.231858247004347 -4.2305440006717547e-05 -3.4926256041368646e-05 -1.2659808042237058e-05 0.0000000000000000 5.3244417274645913e-07 2.0323420531056641e-07 -7.8383598229440885e-07 0.0020014021358500168 4.0542662714053485e-10 4.4104635747494604e-10 -1.2460434706243858e-09 0.0000000000000000 -42.676694985445003 -120.10595080876966 163.70375490782192 268.28772502602959 0.0000000000000000 0.0000000000000000 0.0000000000000000 0.0000000000000000 3.0943427215699115 3.1902762314224025 1.0959399928917295 1.0497339651610078 297.86030232585375 297.86021914163399 1.0468763632499962 
-24.068971513843653 -114.46845353376015 160.19156799969795 -24.068971513843650 -114.46845353376013 160.19156799969795 89.102820180162709 -1.3182118086797646e-05 -8.3657604865964531e-06 -1.3148533554357693e-05 0.0000000000000000 -5.3257956378338633e-10 -1.2898626611246297e-10 -7.8915033885351704e-07 0.0016305583288443513 5.1967733169256953e-11 -6.2444390711779360e-11 -9.3831775480216807e-11 0.0000000000000000 -23.747323328369049 -114.23396745764113 161.81277151251504 321.01516800445251 0.0000000000000000 0.0000000000000000 0.0000000000000000 0.0000000000000000 3.1140548043460110 3.2309952306607248 1.1169606664360998 1.0562074981114888 280.58999016221065 280.59000070657407 1.0568660423336953 
-6.6228342473610420 -105.15627693553253 105.61188562176984 -6.6228342473610420 -105.15627693553255 105.61188562176989 44.674542106513549 -3.0593930630340565e-06 5.7796424083137200e-06 3.0554701844365685e-05 36.851623116446198 -2.6390956087141149e-10 -9.2806096141373460e-11 -1.8105897714448813e-06 0.0017087411615430673 7.5086220528524698e-11 -2.6538263165633782e-10 5.8073250302321495e-10 0.0015429642785341595 -6.4634479885999987 -104.98755276399999 109.33149947120000 327.67017865987640 0.0000000000000000 0.0000000000000000 0.0000000000000000 0.0000000000000000 3.1148267775177576 3.2325599173445525 1.1177541464886505 1.0566402064142204 366.18801903372787 366.18851600687242 1.0572403696737620 
-12.016388722054776 -97.229627295777348 97.402443267607126 -12.016388722054774 -97.229627295777362 97.402443267607140 72.175410859935042 9.5801667894401267e-06 -1.0526999526096448e-05 2.3576628335997042e-05 64.159153992413650 -3.4697085482537915e-10 -6.2023164382196683e-11 -1.9642265796093739e-06 0.0023187582130348751 1.2821791279201849e-10 -8.5116298180137055e-11 5.2744461525056487e-10 0.0022541782706906213 -11.806838433999999 -97.116880539599975 101.43768333439998 212.90238721710071 0.0000000000000000 0.0000000000000000 0.0000000000000000 0.0000000000000000 3.1156994914051768 3.2345005374789695 1.1188248522311690 1.0572133708828404 321.35188040428687 321.35177047142764 1.0577460134949346 
-16.097108628289146 -110.56703735435624 99.128549762986367 -16.097108628289149 -110.56703735435623 99.128549762986324 57.688107177201239 -2.2228113995982865e-05 3.6328725182276270e-06 3.6622354604409763e-05 0.0000000000000000 -4.0981268378814656e-10 -1.1382184084141045e-10 -1.9319230979419899e-06 0.0020976591608568799 -4.2055866954643244e-11 2.7872405985782622e-11 1.0944770460101675e-09 0.0000000000000000 -15.849604639409371 -110.36010279166017 103.09742667861765 236.22178992679409 0.0000000000000000 0.0000000000000000 0.0000000000000000 0.0000000000000000 3.1146277051197022 3.2321192664433767 1.1175119417819490 1.0564041956038763 335.32901049535207 335.32797604112034 1.0571246904211191 
-24.071248012983851 -99.664151647722406 98.280359894330161 -24.071248012983848 -99.664151647722463 98.280359894330118 65.147790168213220 -1.3276610600408417e-05 -3.6096426829763043e-05 3.5611485016597700e-05 0.0000000000000000 -5.3261375865254479e-10 -7.1474270946225715e-11 -1.9477966777259326e-06 0.0022133875498440499 -1.7980733922530264e-10 -6.4363203694924434e-10 1.0703525436677582e-09 0.0000000000000000 -23.749578654390465 -99.534212460059550 102.28184693721489 211.57004919854941 0.0000000000000000 0.0000000000000000 0.0000000000000000 0.0000000000000000 3.1111588817724729 3.2248546170723866 1.1137105337256765 1.0554098663006684 315.28405368117450 315.28435898396407 1.0553239944149990 
-54.582871043848989 -108.68380309789828 110.29749442143145 -54.582871043848989 -108.68380309789832 110.29749442143151 25.267805786041926 -4.7038358882484292e-06 -4.0239972647625248e-05 3.0545570431081270e-05 0.0000000000000000 2.8818028104186650e-07 -3.8962818720199244e-07 1.3601466726864387e-06 0.0012231106471224085 -2.8060108246852691e-09 -7.1742432364596688e-10 -2.4772236497535631e-10 0.0000000000000000 -54.087034329299712 -108.37170302860723 113.84396407125838 191.01171882188567 0.0000000000000000 0.0000000000000000 0.0000000000000000 0.0000000000000000 3.0909312788672043 3.1832602114723367 1.0923328693479220 1.0463687844739644 322.28700756431022 322.28596029904662 1.0451482649233554 
-42.091411502693710 -108.04524902452110 107.32991417724877 -42.091411502693724 -108.04524902452111 107.32991417724874 35.762753416582271 1.2361492615824269e-05 -3.4467079070824507e-05 7.9661541352035281e-07 0.0000000000000000 6.2960974163086246e-07 -6.2680038979514425e-07 8.9707070647639567e-07 0.0016400309295780023 2.0425116131487352e-10 -1.7373888884395172e-10 -2.2220402143921371e-10 0.0000000000000000 -41.690910404717421 -107.74885629568415 110.97670241767709 270.34727434602189 0.0000000000000000 0.0000000000000000 0.0000000000000000 0.0000000000000000 3.0974347243978282 3.1968245503617956 1.0993996640435233 1.0487949899092806 312.53322989390944 312.53188390917421 1.0485226020747467 