# For a description of the Tecplot format see the Tecplot User's guide.
#
Variables=x,y,z,s_u,s_v,s_w,s_p,mono_f_vel_u,mono_f_vel_v,mono_f_vel_w,const,u_nu,v_nu,w_nu,p_nu,x_nu,y_nu,z_nu,const,u_ref,v_ref,w_ref,vol_ref,x_ref,y_ref,z_ref,const,I1,I2,I3,J,p1,p2,p3
Zone f=fepoint, n=1339, e=6475, et=brick, c=black
-58.9694 -70.4377 175.880 -58.969356050020785 -70.437711259071875 175.87953666247813 -88.488928356328998 9.7550603034254258e-09 -1.9904331393457948e-07 8.2133034256684158e-07 -89.175585137954258 8.5369596877771237e-09 -4.4227699280696697e-10 9.4538516703934761e-07 0.00039938810936944843 -2.4289286818872193e-13 1.8669938751714307e-13 -2.5244031670107381e-12 0.00040048169037107341 -58.668039002000000 -70.473359259200009 176.35421013599998 215.13583165143561 0.0000000000000000 0.0000000000000000 0.0000000000000000 0.0000000000000000 3.0528998272762893 3.1064501686022483 1.0535526627439218 1.0260666569705970 356.81319616683874 356.81319616649949 1.0264277407004945 
-65.291857972638340 -76.398666836632486 183.68984397637459 -65.291857972638340 -76.398666836632486 183.68984397637453 -92.373290809853884 -2.4585421854004737e-06 -3.7410993081154176e-06 3.9913954098938292e-06 -92.404415898052619 9.3137553155986375e-09 -1.9875656676049402e-10 6.6653802743843471e-07 0.00040424558071842155 7.6578991722148674e-12 2.2285320054633793e-12 -9.1959942261891156e-12 0.00040939265945730903 -64.963123215600007 -76.414687385200040 184.02450960799996 253.42820447565578 0.0000000000000000 0.0000000000000000 0.0000000000000000 0.0000000000000000 3.0538216240390406 3.1083256551125151 1.0545065664368476 1.0260666569705956 366.94598935898199 366.94598935880066 1.0268931122177760 
-70.012799864330177 -71.552167773098589 176.77810661077837 -70.012799864330177 -71.552167773098603 176.77810661077839 -89.592477009969642 -1.9304189069873299e-06 -6.1699018060081798e-07 2.6362611561099359e-07 -91.373870926203708 9.8937957757061490e-09 -3.9674552532176222e-10 9.1330399731859302e-07 0.00040049861817226452 5.1905601227099542e-12 2.0103277489652559e-12 -1.3923074647907161e-12 0.00040288470290954838 -69.663592608799988 -71.584146237200002 177.23667228800005 218.29881668600640 0.0000000000000000 0.0000000000000000 0.0000000000000000 0.0000000000000000 3.0543128095531924 3.1093160327915759 1.0550057989186257 1.0260666569705978 363.94176341908820 363.94176341895303 1.0271367574886345 
-57.459775993462486 -87.748123776164348 171.11067854894506 -57.459775993462479 -87.748123776164405 171.11067854894492 -83.597603504066200 -2.6353183338488286e-06 3.9772736343679679e-06 9.8964984453688687e-06 0.0000000000000000 8.3514887436186847e-09 2.6487850801615309e-10 1.1156450971938625e-06 0.00039417816912739521 6.2116586991675492e-12 -1.0522854066305594e-11 -6.7630259279523245e-12 0.0000000000000000 -57.165005282198301 -87.726774323660578 171.67083873969227 259.76550921814646 0.0000000000000000 0.0000000000000000 0.0000000000000000 0.0000000000000000 3.0485436186948918 3.0975861773687385 1.0490438004596687 1.0246651774944884 332.28760504212488 332.28760504093225 1.0242273815883638 
-89.331327330090161 -83.384905197847033 115.55690109069685 -89.331327330090119 -83.384905197847033 115.55690109069688 -75.773646595441065 -4.4512285890595070e-07 6.7789317938570331e-06 -3.2369237797076069e-06 0.0000000000000000 1.2267332642756925e-08 8.6629314832720170e-11 3.0990512178696861e-06 0.00040589085688195185 -3.0000472392173174e-12 -1.9914234079683747e-11 6.4848386191808083e-12 0.0000000000000000 -88.898344731952406 -83.377922378373768 117.11292023788836 283.91631954144174 0.0000000000000000 0.0000000000000000 0.0000000000000000 0.0000000000000000 3.0488417965678516 3.0981225571980477 1.0492816611057234 1.0247645964185543 318.52531133383224 318.52531133235493 1.0243439767589348 
-98.066555952963256 -66.854253493625194 106.50181038512494 -98.066555952963242 -66.854253493625180 106.50181038512495 -87.084662480295762 1.0323174819822252e-07 2.4136718406608117e-06 -1.3906391037022921e-05 -89.119038286187205 1.3340564979091862e-08 -5.8866173047178460e-10 3.4223401783606278e-06 0.00043036787580927235 -4.5026635683788523e-12 -4.7519507588288216e-12 2.6540242944931431e-11 0.00042907302977095423 -97.595692787999965 -66.901700632800015 108.22015140479995 322.25788568967050 0.0000000000000000 0.0000000000000000 0.0000000000000000 0.0000000000000000 3.0536425126502071 3.1079820893247505 1.0543421966024198 1.0260666569705956 356.78553110156275 356.78553110145225 1.0268129221331819 
-80.055289640827624 -67.486083437607661 106.90434972421590 -80.055289640827610 -67.486083437607689 106.90434972421595 -85.267417826303230 -3.4801130637638357e-06 3.2748507624080862e-06 -6.3054727572625423e-06 0.0000000000000000 1.1127647407682682e-08 -5.6285776039999291e-10 3.4079685327093046e-06 0.00042633597733058334 1.2555247123475807e-11 -6.3907561259836691e-12 2.0751835827988741e-11 0.0000000000000000 -79.662532843379708 -67.531450170133141 108.61547480962874 295.38956150422752 0.0000000000000000 0.0000000000000000 0.0000000000000000 0.0000000000000000 3.0502549836528221 3.1010639423128339 1.0508106621907947 1.0251634702749624 341.39113918643102 341.39113918567722 1.0250895864119371 
-94.935071274788143 -81.841404130601632 106.91538087587313 -94.935071274788186 -81.841404130601632 106.91538087587317 -83.698902760078326 -5.0282470548964482e-06 4.4123250385208622e-06 -1.0419699382014224e-05 0.0000000000000000 1.2955815691106933e-08 2.3578028418569374e-11 3.4075746881967461e-06 0.00042949311145811040 2.0444559149569649e-11 -4.0267340958693699e-12 3.2227539155341781e-11 0.0000000000000000 -94.477787882002133 -81.839503548705352 108.62630821647583 293.80807890400462 0.0000000000000000 0.0000000000000000 0.0000000000000000 0.0000000000000000 3.0502244708456341 3.1009730549430690 1.0507500950145203 1.0251293061496538 336.27913688125892 336.27913688033124 1.0250599556327558 
-47.580367219209734 -126.09877030124264 137.54276577200167 -47.580367219209705 -126.09877030124255 137.54276577200164 -41.985537853379114 3.9578454380158585e-07 2.8031084328274711e-06 8.5301794290087836e-06 0.0000000000000000 1.9707230931107609e-07 -6.4930098217605806e-08 2.2930884829082104e-06 0.00033974451667341808 -1.4128965034492480e-12 -6.7762975321938774e-12 -7.0401188679381611e-12 0.0000000000000000 -47.292355390977058 -125.96433165720771 138.67232254046354 244.31333887135355 0.0000000000000000 0.0000000000000000 0.0000000000000000 0.0000000000000000 3.0571885006915700 3.1152521658413299 1.0580676515597285 1.0287850659051760 292.09821414042017 292.09821413973543 1.0286240745108943 
-34.405899981892894 -140.63310533243308 138.06980804475478 -34.405899981892873 -140.63310533243305 138.06980804475472 -41.882821947940570 4.8650690732966718e-06 -6.9827472505216151e-07 4.2367097352105477e-06 0.0000000000000000 7.7655867060645664e-08 1.7986319560742897e-08 2.3041607660557310e-06 0.00033401459554429025 -2.2634328597861520e-11 6.0634999038622619e-12 5.4669402074999612e-12 0.0000000000000000 -34.196989160350306 -140.43319657724166 139.21506628885933 210.16870282748488 0.0000000000000000 0.0000000000000000 0.0000000000000000 0.0000000000000000 3.0562556797576166 3.1133316807326712 1.0570794018181642 1.0281731969832835 288.91768683729396 288.91768683605824 1.0281439899694442 
-31.128815664983144 -127.79434439736988 141.64019377386046 -31.128815664983136 -127.79434439736994 141.64019377386046 -46.681759398491543 3.4621875990316075e-06 1.5832740541241895e-06 8.7064040346103078e-06 0.0000000000000000 5.1163839484558160e-09 1.9008023488531478e-09 2.1678136787883773e-06 0.00033934401851483089 -1.0566588156201958e-11 -4.0260104786015286e-12 3.7330287665229804e-12 0.0000000000000000 -30.948229910445860 -127.64113600963313 142.72864290474456 229.21992526850030 0.0000000000000000 0.0000000000000000 0.0000000000000000 0.0000000000000000 3.0546298468213977 3.1100041165166732 1.0553771668518415 1.0275162036510046 291.38472865775185 291.38472865676215 1.0273152349925345 
-48.697179488736538 -131.05697697324706 145.87172792661130 -48.697179488736538 -131.05697697324698 145.87172792661124 -43.247968254496783 3.3440990237933707e-06 9.4454536234933641e-06 -2.6976469509917710e-06 0.0000000000000000 1.8199541617864148e-07 -6.4157157743401918e-08 2.0051813021149703e-06 0.00033347162217857738 -8.7586882467268216e-12 -3.7296166068313021e-11 1.7380871907918350e-11 0.0000000000000000 -48.406431667502837 -130.90513559487593 146.85896726379221 225.63426853136377 0.0000000000000000 0.0000000000000000 0.0000000000000000 0.0000000000000000 3.0577632180603640 3.1164038324855743 1.0586444953012384 1.0287421385691571 293.98574820232602 293.98574820133382 1.0289044803247380 
-53.287275513906025 -84.918795770821674 75.372271362164497 -53.287275513906025 -84.918795770821660 75.372271362164540 -82.104017853629230 -2.6009919661741881e-06 2.5712779496283314e-05 -4.8506460574345629e-05 0.0000000000000000 1.7455065073981420e-08 -4.9543522927394017e-08 4.8840169269575360e-06 0.00052859024211736197 2.5364229108615237e-11 2.3023501167007409e-10 1.0765691978044045e-10 0.0000000000000000 -53.009977022357148 -84.940192361847963 77.707205907375524 356.07450292316213 0.0000000000000000 0.0000000000000000 0.0000000000000000 0.0000000000000000 3.0515609671614263 3.1037019353766913 1.0521425547277703 1.0257420490429336 326.28156931688795 326.28156931530617 1.0257366310235598 
-40.532194479306597 -85.657124486451366 65.000273309580578 -40.532194479306575 -85.657124486451309 65.000273309580550 -112.73231289505880 8.1334740793259514e-08 7.5234856166953492e-06 -2.6027499776880694e-05 0.0000000000000000 1.1021648938841010e-08 -3.3708386503246517e-08 5.0441927116735897e-06 0.00054166754362207099 2.7768307152639625e-11 1.1425929982969312e-11 -4.3455185588154571e-11 0.0000000000000000 -40.313282635619565 -85.652866469445740 67.489144002613742 334.72004880612383 0.0000000000000000 0.0000000000000000 0.0000000000000000 0.0000000000000000 3.0492302726288707 3.0990407594533016 1.0498124093197598 1.0251254836717929 386.07052607550042 386.07052607487293 1.0246025808109984 
-43.151914984259243 -94.085342390293732 81.055991612361865 -43.151914984259264 -94.085342390293732 81.055991612361836 -70.319595229116516 2.6351613409564363e-05 6.2781035202669282e-06 -2.0844646835140889e-05 0.0000000000000000 -6.9653180651415960e-09 -8.9525807897069002e-08 4.6512378997782293e-06 0.00048793801245630572 8.0211792789120521e-11 2.5078175855308012e-11 2.5338165866937970e-10 0.0000000000000000 -42.930125987095458 -94.071309017270835 83.274511392489799 283.94561953274422 0.0000000000000000 0.0000000000000000 0.0000000000000000 0.0000000000000000 3.0526686393800584 3.1059752921980763 1.0533087385266340 1.0259231765369634 315.46782134800020 315.46782134667689 1.0263073287888995 
-45.187888629973486 -99.028208159203984 65.563354588279793 -45.187888629973486 -99.028208159204027 65.563354588279765 -94.809916240100037 1.8688473023620373e-05 1.3164554846691854e-05 -3.9368617112477371e-05 0.0000000000000000 6.8437274666766071e-09 7.2568617781598722e-10 4.8839434683145555e-06 0.00052798764681294419 -9.1158413244613818e-11 -6.9426127156933087e-11 -1.6057566622641099e-10 0.0000000000000000 -44.946335306532468 -98.969717126470769 68.015559797458934 339.42980011114588 0.0000000000000000 0.0000000000000000 0.0000000000000000 0.0000000000000000 3.0518933308639009 3.1044697125009679 1.0525790616366313 1.0257532538599665 357.15644951385747 357.15644951363413 1.0259514179808134 
-35.858618766005428 -100.88682993501629 73.018976972934553 -35.858618766005414 -100.88682993501624 73.018976972934539 -88.804083454818581 1.4429084827206083e-05 8.9049742714750074e-06 -1.9605666106261799e-05 0.0000000000000000 -2.1867814651504323e-08 -5.2385920244747064e-08 4.7721524138549339e-06 0.00051032393961705162 5.3775946503720280e-11 -6.9597818048122865e-11 5.7195470762644856e-11 0.0000000000000000 -35.672109309640206 -100.83293553867907 75.360366609178811 338.44965823895870 0.0000000000000000 0.0000000000000000 0.0000000000000000 0.0000000000000000 3.0481655006293327 3.0968815081881429 1.0487178206615331 1.0249920964966319 340.04257013567553 340.04257013510710 1.0240688454474525 
-49.234896346857802 -112.09358779065987 62.882887605356771 -49.234896346857802 -112.09358779065990 62.882887605356778 -84.842944924652755 2.7254845538957579e-05 1.0382453704256698e-05 -2.3900377883612315e-05 -73.636276204508448 7.3409543652203099e-09 1.2594138509847141e-09 4.9796427141757241e-06 0.00048440878935921544 -9.3014589479468512e-11 5.8034290228534953e-11 3.7129326130148963e-11 0.00047232639756827893 -48.975793059600008 -111.99207679200002 65.383142959360015 326.57209562220959 0.0000000000000000 0.0000000000000000 0.0000000000000000 0.0000000000000000 3.0521976153928980 3.1050030827466513 1.0528074124237430 1.0259713430401478 342.39530119067507 342.39530118993787 1.0260625934260577 
-25.395258880709537 -110.57839330585806 65.007486644388550 -25.395258880709545 -110.57839330585796 65.007486644388536 -105.03408131128772 5.0572553166599225e-06 5.5328624804333296e-06 -2.2492004375421396e-05 0.0000000000000000 4.4119405837039780e-09 1.1975134217578896e-09 4.9037893181669290e-06 0.00050671914731955487 -8.0660524473455501e-12 -3.6582505621676239e-11 1.5336646959305721e-11 0.0000000000000000 -25.239536857883341 -110.48187134057846 67.469656361758609 349.35568362690350 0.0000000000000000 0.0000000000000000 0.0000000000000000 0.0000000000000000 3.0505463420002878 3.1016934840253199 1.0511492013632620 1.0254384385054585 378.13928428535968 378.13928428496723 1.0252551034556592 
-44.313614757746059 -111.36772252940781 74.154196554075185 -44.313614757746087 -111.36772252940776 74.154196554075227 -72.123050261035658 1.4538407425978560e-05 -1.2311854305475355e-05 -1.2433521943517762e-05 0.0000000000000000 6.7363109187978942e-09 1.2297556861717851e-09 4.5772293377766005e-06 0.00046532628368209996 -4.9510308992707546e-11 -1.0259718771678184e-11 9.2206108635828637e-11 0.0000000000000000 -44.075852747763513 -111.26860156453857 76.452402029906395 268.59635586333832 0.0000000000000000 0.0000000000000000 0.0000000000000000 0.0000000000000000 3.0537960582868737 3.1083236657041611 1.0545305203327471 1.0258097791785796 327.86858904199465 327.86858904160260 1.0269037192622157 
-58.594905395225517 -106.65517278712291 103.55482758463822 -58.594905395225560 -106.65517278712288 103.55482758463816 -35.795619091927037 4.9493998916776553e-06 1.8981680747752998e-05 -2.6285387996817877e-07 0.0000000000000000 2.1710283088068329e-07 -1.9691475614617645e-07 3.7036964160627037e-06 0.00036815984183008644 -2.8501704767263229e-11 -7.9393742917097470e-11 2.1983607786867949e-11 0.0000000000000000 -58.254647241440821 -106.62760994408018 105.33920711112118 241.62621693813244 0.0000000000000000 0.0000000000000000 0.0000000000000000 0.0000000000000000 3.0603544600360757 3.1216507013748518 1.0613006469091426 1.0298647270846897 288.84829468483434 288.84829468439966 1.0301942481437225 
-64.740992785365123 -90.056821756590381 94.718606987792867 -64.740992785365108 -90.056821756590367 94.718606987792839 -57.415896318060248 -9.2651761649158512e-06 5.4555853172103715e-06 1.4621823703972471e-05 0.0000000000000000 1.9727522421812712e-07 -2.5348984895974149e-07 4.1224460428127362e-06 0.00040800679330538930 4.8787310798966114e-11 -2.8568780937162529e-11 -6.1889982531197419e-11 0.0000000000000000 -64.370648572599308 -90.090304358695661 96.688480747766732 239.98138923263960 0.0000000000000000 0.0000000000000000 0.0000000000000000 0.0000000000000000 3.0555325222970349 3.1117808577649892 1.0562505265293043 1.0267217168952019 304.10569878236214 304.10569878026968 1.0277380048423908 
-76.345888998434447 -99.716604333365936 99.450726776668034 -76.345888998434461 -99.716604333365936 99.450726776668034 -52.436043631944798 -1.5897266167212294e-05 1.8725505080385655e-05 -4.1274456410046429e-06 0.0000000000000000 2.6295177969112664e-07 -1.6330302214649251e-07 3.8871892316002086e-06 0.00040579083543049144 8.4725136523715948e-11 -8.6011908240024961e-11 3.3257979081891423e-11 0.0000000000000000 -75.913673002404863 -99.702254402691466 101.32606574872912 288.13617662859207 0.0000000000000000 0.0000000000000000 0.0000000000000000 0.0000000000000000 3.0570225677596032 3.1148415466438588 1.0578220968126966 1.0277458550653791 302.65542798452583 302.65542798358257 1.0285060298438793 
-55.487118540080722 -93.567039064209482 101.49381723679666 -55.487118540080708 -93.567039064209453 101.49381723679667 -53.451937200092779 -7.3190939245837327e-07 9.7753733116428293e-06 5.6328350358042720e-06 0.0000000000000000 1.7983890271738374e-07 -2.3691466641476560e-07 3.8344883883572363e-06 0.00039489309153403502 1.5259646588003322e-11 -2.1348962178665233e-11 4.7967692148623102e-12 0.0000000000000000 -55.164710769962618 -93.586508083202432 103.32606452766413 222.68531933077850 0.0000000000000000 0.0000000000000000 0.0000000000000000 0.0000000000000000 3.0558352591296636 3.1123615325671206 1.0565284989615042 1.0277130458639137 308.88725683006220 308.88725682856534 1.0278759968197304 
-46.007887092283489 -176.20842519740427 154.79654719334985 -46.007887092283475 -176.20842519740432 154.79654719334985 -44.483604527323457 -8.3745617787053822e-06 -9.9147777057508475e-06 1.9242845923317054e-05 0.0000000000000000 6.9444707137544803e-09 3.8785735179125425e-09 1.6980995942716957e-06 0.00032419202931967478 1.9040671993057861e-11 3.4771813771549834e-11 -2.9416503233667910e-11 0.0000000000000000 -45.762777822239421 -175.89580528354742 155.64915507299250 248.91339099022119 0.0000000000000000 0.0000000000000000 0.0000000000000000 0.0000000000000000 3.0560663454892549 3.1128439067995877 1.0567800841958215 1.0273770248053977 283.32556658282351 283.32556658186439 1.0279974825677103 
-51.705311765429876 -185.90736673059172 167.52935479445455 -51.705311765429876 -185.90736673059175 167.52935479445455 -49.699332573929894 6.5077172482226063e-07 -1.0900161064608206e-06 -6.9233010798786919e-07 -52.001227359950569 7.6444771832107072e-09 4.2748003470371998e-09 1.2435071368166462e-06 0.00032638936178340695 -3.0406918048355572e-12 5.2603928430058474e-12 6.4572658511026645e-12 0.00032960771251294463 -51.435495451599998 -185.56281141599996 168.15371392000000 294.81703600272857 0.0000000000000000 0.0000000000000000 0.0000000000000000 0.0000000000000000 3.0517537980719571 3.1041237423418546 1.0523720644252947 1.0260920052650671 283.63836429074593 283.63836429031113 1.0258521708061272 
-42.906652397708854 -171.47643271248552 165.61275817731783 -42.906652397708861 -171.47643271248549 165.61275817731791 -48.464562468272121 1.2946129998339638e-06 -1.3408982815491445e-06 5.2095723342522259e-06 0.0000000000000000 1.4633119133787697e-08 -2.6933650035630536e-08 1.3132597394658278e-06 0.00032820810878097991 -7.2933373649565457e-12 -5.9108141722530046e-12 -7.9335134254693781e-13 0.0000000000000000 -42.672974891599750 -171.18173466392949 166.26923354793541 271.88244999766295 0.0000000000000000 0.0000000000000000 0.0000000000000000 0.0000000000000000 3.0523294869702848 3.1052966180239903 1.0529693909416808 1.0263470884731900 282.13570857842456 282.13570857803126 1.0261430535399361 
-59.687164766993206 -178.33701204210905 156.93636666122049 -59.687164766993199 -178.33701204210905 156.93636666122040 -52.259270188816608 -5.3358123882915244e-06 -1.7695664133097333e-06 -5.5269514374616189e-07 0.0000000000000000 8.6251529182734821e-09 3.9655268513349995e-09 1.6217027858367315e-06 0.00033489061232826184 1.7112357638256528e-11 4.2923439479312186e-12 1.4998316428431877e-12 0.0000000000000000 -59.382734921100123 -178.01738339707751 157.75061606229067 243.94852352315442 0.0000000000000000 0.0000000000000000 0.0000000000000000 0.0000000000000000 3.0520868312100147 3.1047801463087934 1.0526952994869847 1.0263007580091854 288.31299322099107 288.31299322022892 1.0260096539769668 
-30.842747212820207 -102.77724964951555 93.346795086580173 -30.842747212820203 -102.77724964951555 93.346795086580173 -47.273627669390912 7.4885300599354651e-06 1.3398539206310337e-05 -3.2985496117338566e-05 0.0000000000000000 -1.3979773243513865e-10 -4.6328680366610710e-08 4.0694660728940428e-06 0.00042502102697099210 -9.6707503777938325e-11 1.1329127949574251e-10 2.0426282659863388e-11 0.0000000000000000 -30.660097366607719 -102.72526557899965 95.328291536857705 204.58703120518373 0.0000000000000000 0.0000000000000000 0.0000000000000000 0.0000000000000000 3.0557599281436456 3.1121962613789962 1.0564383356512475 1.0274835015661168 290.44208033991134 290.44208033789795 1.0278313195203490 
-18.931915098754942 -111.00387406374647 91.364340820448319 -18.931915098754935 -111.00387406374647 91.364340820448390 -63.754591365805922 1.2712790596425123e-05 1.3712855385410168e-06 -2.8427314040384877e-05 0.0000000000000000 3.6178310833245857e-09 1.2149049544163404e-09 3.9627849668377735e-06 0.00044388642050734709 5.7209449165569797e-11 -6.3517045049191157e-12 -2.3596254872253403e-11 0.0000000000000000 -18.804221549666405 -110.90595113131390 93.354036648627854 267.24800799435923 0.0000000000000000 0.0000000000000000 0.0000000000000000 0.0000000000000000 3.0519012140091779 3.1043865620961379 1.0524871942708953 1.0261519365276774 313.04719185950586 313.04719185896460 1.0259086820009136 
-33.998049097204053 -104.77843710380803 82.826809779195386 -33.998049097204074 -104.77843710380799 82.826809779195372 -68.099180338074504 1.2436463830518213e-05 -1.2624219630629656e-06 -2.3574377683948527e-05 0.0000000000000000 -5.3568309029725115e-08 -3.4733167506676992e-08 4.4865350196771209e-06 0.00044532534664950603 -7.2506351381209504e-11 2.3657964506071024e-12 8.7973494796646641e-12 0.0000000000000000 -33.815892125380543 -104.71065599625929 85.007910193808286 270.69679205096202 0.0000000000000000 0.0000000000000000 0.0000000000000000 0.0000000000000000 3.0498418566357643 3.1002834312594989 1.0504436533205987 1.0255781466746641 309.54597446693168 309.54597446624911 1.0249100066513110 
-19.049386690257343 -100.44283005743989 93.445678300574031 -19.049386690257339 -100.44283005743993 93.445678300574002 -56.715913371293041 4.4315414335680352e-06 -6.9006798926722258e-07 -8.0741177550338386e-06 0.0000000000000000 3.6322649957232223e-09 7.8347012211210664e-10 3.8884761117685684e-06 0.00041403616692160474 2.8815478777481957e-11 4.0070033913987754e-11 1.7208397557688804e-11 0.0000000000000000 -18.921183722278450 -100.37968114352928 95.398064000337470 185.31956687594098 0.0000000000000000 0.0000000000000000 0.0000000000000000 0.0000000000000000 3.0528647079119389 3.1063195948738933 1.0534567087081723 1.0262622941709496 302.32084945604612 302.32084945530278 1.0263815232482023 
-31.300741899303780 -118.08931841298018 172.69923419654106 -31.300741899303794 -118.08931841298013 172.69923419654108 -62.411151951463268 1.2957487527538993e-05 1.2869671309325714e-05 6.5878820395675246e-06 0.0000000000000000 -8.3644029965651682e-11 -4.2830045906184393e-08 9.7603174483925847e-07 0.00037635213389333277 -2.7773871209476582e-11 -2.4211414665178021e-11 -2.0629567070568555e-11 0.0000000000000000 -31.124431206993112 -117.97934695114738 173.21200361760444 258.17126679857051 0.0000000000000000 0.0000000000000000 0.0000000000000000 0.0000000000000000 3.0526736879342069 3.1059631899117384 1.0532914235507211 1.0264856665506146 308.26218112569973 308.26218112461260 1.0263000067552850 
-30.822098982396820 -133.29904739745982 164.13164760018586 -30.822098982396820 -133.29904739745973 164.13164760018580 -52.139531785212640 1.1310046171098352e-05 1.4810056583574848e-07 5.6698002961286699e-07 0.0000000000000000 2.2431852080383312e-08 -3.1399988329523517e-08 1.3297445145892976e-06 0.00034451207606435756 -3.0687222486346126e-11 -8.5644424015234837e-12 -1.5205779500558585e-12 0.0000000000000000 -30.642131568542830 -133.13454878399213 164.80820313575899 262.24283076768535 0.0000000000000000 0.0000000000000000 0.0000000000000000 0.0000000000000000 3.0540396261426404 3.1087730490681809 1.0547359765624762 1.0271450600771741 296.24137763527398 296.24137763456503 1.0270031174640060 
-42.917490098855467 -120.20530699490394 163.03569430227725 -42.917490098855495 -120.20530699490385 163.03569430227719 -45.490140662888251 1.9102886470816787e-05 1.1351078471773071e-05 5.8712662684072560e-06 0.0000000000000000 6.5137340106246518e-08 -1.1973308096079117e-07 1.2646455306038764e-06 0.00034723029188222777 -5.3374854287358741e-11 -4.1865393383829449e-11 -6.6953235890604219e-11 0.0000000000000000 -42.676694985445003 -120.10595080876966 163.70375490782192 268.28772502602959 0.0000000000000000 0.0000000000000000 0.0000000000000000 0.0000000000000000 3.0591678040076009 3.1192123459580605 1.0600482543823022 1.0287385677636751 295.22874367622285 295.22874367505415 1.0295864427308847 
-23.896546140866015 -114.34288464554206 161.07266962290905 -23.896546140866011 -114.34288464554210 161.07266962290907 -62.477477478801610 6.1914046968668940e-06 4.7274744610235980e-06 6.9107638688092423e-06 0.0000000000000000 4.2278021292196924e-09 1.3513050123314940e-09 1.4740266274237968e-06 0.00036197821193390467 -1.9259091747364422e-11 -1.5197940284921050e-11 -1.0317543671128414e-11 0.0000000000000000 -23.747323328369049 -114.23396745764113 161.81277151251504 321.01516800445251 0.0000000000000000 0.0000000000000000 0.0000000000000000 0.0000000000000000 3.0517014088786572 3.1040055147298902 1.0523060145603269 1.0261922554960916 307.58215826623194 307.58215826529408 1.0258202010710169 
-6.5373923379847074 -105.06592399438770 107.63344415809226 -6.5373923379847092 -105.06592399438772 107.63344415809227 -35.970244341083138 6.2312820068823463e-07 -2.1778296192686342e-07 -1.6198875646406390e-05 -29.214070025869304 2.0950023521537631e-09 9.7232122353574368e-10 3.3819380651500808e-06 0.00032584717240307000 -2.0180876923757703e-12 -1.5031362380502665e-13 6.0318554431712138e-11 0.00030484105811460956 -6.4634479885999987 -104.98755276399999 109.33149947120000 327.67017865987640 0.0000000000000000 0.0000000000000000 0.0000000000000000 0.0000000000000000 3.0522035471771440 3.1050435549167270 1.0528422284092080 1.0263004807394018 255.37340963701544 255.37340963619684 1.0260812269729889 
-11.904055470362081 -97.169250641189947 99.595540275347616 -11.904055470362081 -97.169250641189947 99.595540275347616 -51.592789034193018 -1.5209324633214084e-06 -6.4829044043105109e-07 -1.7921235431416018e-05 -48.872377103024277 2.7543671371477174e-09 6.4974037261578143e-10 3.6689109519372209e-06 0.00038234053172828082 5.7170978151031595e-12 -7.3890668154366207e-12 4.1976706978608062e-11 0.00037837415321499224 -11.806838433999999 -97.116880539599975 101.43768333439998 212.90238721710071 0.0000000000000000 0.0000000000000000 0.0000000000000000 0.0000000000000000 3.0518600478620175 3.1043286435801751 1.0524706722049915 1.0260666569705963 286.14324997786287 286.14324997755114 1.0259000309446622 
-15.964429603431350 -110.45622248892062 101.28557931852384 -15.964429603431352 -110.45622248892056 101.28557931852383 -45.318765805163537 7.6476818051587107e-06 -7.0245209365842784e-07 -3.3636161028141756e-05 0.0000000000000000 3.2532378527183607e-09 1.1925229692621999e-09 3.6085724239853789e-06 0.00036426768833164449 -4.3350411558342431e-11 7.7499495491571052e-12 9.6969030001525229e-11 0.0000000000000000 -15.849604639409371 -110.36010279166017 103.09742667861765 236.22178992679409 0.0000000000000000 0.0000000000000000 0.0000000000000000 0.0000000000000000 3.0518039974430109 3.1042363828049706 1.0524345605641197 1.0262974352049978 277.37040904468086 277.37040904393717 1.0258824754909457 
-23.898811289769931 -99.594568329169590 100.45511260172920 -23.898811289769927 -99.594568329169590 100.45511260172923 -45.476384278767476 8.7678266533204700e-06 1.4809753575292911e-05 -2.1662193017736502e-05 0.0000000000000000 4.2280812809214482e-09 7.4882305911572189e-10 3.6382221182407197e-06 0.00037210861869511864 -1.2923164084405513e-11 -5.9261905933500572e-11 7.6084345414037001e-11 0.0000000000000000 -23.749578654390465 -99.534212460059550 102.28184693721489 211.57004919854941 0.0000000000000000 0.0000000000000000 0.0000000000000000 0.0000000000000000 3.0534018577503113 3.1074873366800237 1.0540878213510443 1.0268011196294460 281.28488989838394 281.28488989708779 1.0266875619654803 
-54.414174045092842 -108.40982804770856 112.23078858032504 -54.414174045092842 -108.40982804770856 112.23078858032504 -24.218252381553121 6.1396034270770642e-06 2.1108576369117311e-05 -1.4830759639019944e-05 0.0000000000000000 2.6221712988488022e-07 -1.8474182056034521e-07 3.3305820346741029e-06 0.00035881865682803045 -3.2016239601423917e-11 -2.8841723113442538e-11 -7.8690107265624980e-11 0.0000000000000000 -54.087034329299712 -108.37170302860723 113.84396407125838 191.01171882188567 0.0000000000000000 0.0000000000000000 0.0000000000000000 0.0000000000000000 3.0636992073757612 3.1284352094183219 1.0647410406329454 1.0312147510021041 274.82997131524758 274.82997131488725 1.0318630490454164 
-41.955794676770232 -107.79064607674937 109.30368564504742 -41.955794676770218 -107.79064607674943 109.30368564504747 -30.151620951088447 -5.0496934308395784e-06 1.4532224506921069e-05 1.9590015970454793e-06 0.0000000000000000 2.2600867305957151e-07 -1.9546804617864393e-07 3.4513507670403771e-06 0.00032120108296485923 5.4634864094465777e-11 -1.1481388343839497e-10 -4.3564032412652901e-11 0.0000000000000000 -41.690910404717421 -107.74885629568415 110.97670241767709 270.34727434602189 0.0000000000000000 0.0000000000000000 0.0000000000000000 0.0000000000000000 3.0603555759129075 3.1215656655784287 1.0612134673801998 1.0299983324622650 281.38280418782057 281.38280418669433 1.0301522283370803 