# For a description of the Tecplot format see the Tecplot User's guide.
#
Variables=x,y,z,s_u,s_v,s_w,s_p,mono_f_vel_u,mono_f_vel_v,mono_f_vel_w,const,u_nu,v_nu,w_nu,p_nu,x_nu,y_nu,z_nu,const,u_ref,v_ref,w_ref,vol_ref,x_ref,y_ref,z_ref,const,I1,I2,I3,J,p1,p2,p3
Zone f=fepoint, n=1339, e=6475, et=brick, c=black
-58.6712 -70.4730 176.349 -58.671196429805256 -70.472985324986482 176.34930333500600 -3.2327048083466492 1.2207731988367445e-09 -1.0775661423196764e-08 2.3946206729566158e-08 -3.2371678856055301 6.5729233579385490e-12 -4.5561557998619051e-13 1.7459035606126605e-10 4.6022387776722281e-07 3.5546517472034368e-15 -4.9636834267770934e-15 7.7444333935613446e-15 4.6252411783107288e-07 -58.668039002000000 -70.473359259200009 176.35421013599998 215.13583165143561 0.0000000000000000 0.0000000000000000 0.0000000000000000 0.0000000000000000 3.0005475917312228 3.0010952540801612 1.0005476623515952 1.0002689967070812 7.7332126533631200 7.7580693945058252 1.0002737938515325 
-64.966567946886329 -76.414519335626210 184.02105009794624 -64.966567946886343 -76.414519335626210 184.02105009794619 -3.2949616772528580 -1.8362513679087255e-08 -5.8855933731214840e-08 6.4657750313063446e-08 -3.2920857247347630 7.1723778717440472e-12 -1.9985662430554996e-13 1.2309547131605925e-10 4.5488509678916013e-07 5.6285405907776406e-15 -6.2888577040284932e-15 5.7633367319823105e-15 4.5778116483512446e-07 -64.963123215600007 -76.414687385200040 184.02450960799996 253.42820447565578 0.0000000000000000 0.0000000000000000 0.0000000000000000 0.0000000000000000 3.0005608127646068 3.0011217006859332 1.0005608879242978 1.0002689967070799 7.8930509317704720 7.7048503322307242 1.0002804049395200 
-69.667251866401415 -71.583810795049544 177.23193199673389 -69.667251866401429 -71.583810795049544 177.23193199673389 -3.2437975793432616 -2.1857582720780333e-08 -1.4063823144813975e-08 1.4670933027313106e-08 -3.2635500903181431 7.6245253058208895e-12 -4.0325208450209260e-13 1.6866986279895357e-10 4.6404205266164586e-07 3.4322117746772572e-15 -3.3138086583793239e-15 6.5524101148605202e-15 4.6595233677645670e-07 -69.663592608799988 -71.584146237200002 177.23667228800005 218.29881668600640 0.0000000000000000 0.0000000000000000 0.0000000000000000 0.0000000000000000 3.0005694868178341 3.0011390503485802 1.0005695635338017 1.0002689967070812 7.8362675100181187 7.8708566029457083 1.0002847416888521 
-57.168094112538384 -87.726998271447272 171.66504824425900 -57.168094112538427 -87.726998271447314 171.66504824425911 -3.1762321799205320 -3.4039428490164277e-08 3.9674366749403214e-08 1.3646362585032183e-07 0.0000000000000000 6.4356104538358661e-12 2.6722070736728831e-13 2.0603993511336680e-10 4.5941768206282330e-07 4.1633841798641403e-15 -5.5427928517822882e-15 9.0276547858570222e-15 0.0000000000000000 -57.165005282198301 -87.726774323660578 171.67083873969227 259.76550921814646 0.0000000000000000 0.0000000000000000 0.0000000000000000 0.0000000000000000 3.0004836884792918 3.0009674261736348 1.0004837376954390 1.0002474209853780 7.3905958034208670 7.3938545107451210 1.0002418392859025 
-88.902881850922341 -83.377995625543250 117.09683533589995 -88.902881850922327 -83.377995625543250 117.09683533589990 -3.0205551134643835 -2.7733521582248970e-08 7.8402722478784422e-08 -3.0671737415238285e-08 0.0000000000000000 9.4426048469035961e-12 9.0208222836007947e-14 5.7234195854904968e-10 5.4805861421368746e-07 -7.1254006594898469e-15 2.4262308474891285e-15 9.8203579008871700e-15 0.0000000000000000 -88.898344731952406 -83.377922378373768 117.11292023788836 283.91631954144174 0.0000000000000000 0.0000000000000000 0.0000000000000000 0.0000000000000000 3.0004857908131681 3.0009716188351949 1.0004858280223567 1.0002490801268520 7.1261065359612425 7.1261064838598625 1.0002428843691897 
-97.600626848184390 -66.901202930022663 108.20238854697529 -97.600626848184405 -66.901202930022677 108.20238854697529 -3.1504954465418504 -5.2813056740025076e-09 1.7557345475006353e-08 -1.3823819307677404e-07 -3.1714072387255574 1.0274950324167671e-11 -5.9271251101611355e-13 6.3205591455117727e-10 5.5483684155322113e-07 3.9093508012681751e-17 -1.6136230955275054e-15 1.5551118377152258e-14 5.5450126247654843e-07 -97.595692787999965 -66.901700632800015 108.22015140479995 322.25788568967050 0.0000000000000000 0.0000000000000000 0.0000000000000000 0.0000000000000000 3.0005606339461184 3.0011213462457151 1.0005607123027693 1.0002689967070792 7.6383695773174329 7.6383690242611229 1.0002803171589534 
-79.666648446001929 -67.530974290044909 108.59778654445647 -79.666648446001957 -67.530974290044909 108.59778654445650 -3.1163818652889481 -4.8055551252700590e-08 3.6236539146879349e-08 -6.5771879625504648e-08 0.0000000000000000 8.5740279351202708e-12 -5.7504175032807571e-13 6.2940259254462561e-10 5.5332362957548119e-07 2.9928784588061913e-15 4.4891512185351190e-15 1.4858122261923044e-14 0.0000000000000000 -79.662532843379708 -67.531450170133141 108.61547480962874 295.38956150422752 0.0000000000000000 0.0000000000000000 0.0000000000000000 0.0000000000000000 3.0005092679286225 3.0010185925928123 1.0005093246659376 1.0002560148606687 7.3860031267587294 7.3860053414438172 1.0002546297065047 
-94.482579643068220 -81.839523485099932 108.60862199543381 -94.482579643068220 -81.839523485099960 108.60862199543378 -3.1133214456019171 -6.3861475821990532e-08 4.3970794258561536e-08 -9.9654454498453286e-08 0.0000000000000000 9.9743288173130551e-12 2.9796477785115627e-14 6.2932679206761922e-10 5.6066549871660626e-07 5.8533969551484240e-15 6.6093405469033834e-15 2.2273257664386950e-14 0.0000000000000000 -94.477787882002133 -81.839503548705352 108.62630821647583 293.80807890400462 0.0000000000000000 0.0000000000000000 0.0000000000000000 0.0000000000000000 3.0005058764802595 3.0010118047928573 1.0005059283140296 1.0002548494069965 7.3508346053570701 7.3508345554317041 1.0002529319217599 
-47.295539128791447 -125.96570122355512 138.66122140757975 -47.295539128791454 -125.96570122355516 138.66122140757977 -2.5067345184499992 -1.5539925044032371e-08 4.5081458793411161e-08 2.0287593802534067e-07 0.0000000000000000 9.2390982753607888e-11 -8.2958189942251554e-11 8.7612088778211899e-10 5.0291591192213036e-07 4.9034836981601049e-15 -7.6839903526768902e-15 3.6794941898713163e-14 0.0000000000000000 -47.292355390977058 -125.96433165720771 138.67232254046354 244.31333887135355 0.0000000000000000 0.0000000000000000 0.0000000000000000 0.0000000000000000 3.0006131254706689 3.0012263585642396 1.0006132330993429 1.0003097370524512 6.7254272924987193 6.7254214717743546 1.0003065695350202 
-34.199226280850667 -140.43533283669132 139.20342517171164 -34.199226280850667 -140.43533283669137 139.20342517171173 -2.5316435580191134 7.5620273830475540e-08 -4.1907301497597849e-08 1.1101043241996787e-07 0.0000000000000000 5.1411022100123604e-11 -4.4809888991354184e-11 5.7261059901377400e-10 4.6526049492934323e-07 -2.3137640128485013e-16 -1.7519123011374627e-14 4.3835831284418617e-14 0.0000000000000000 -34.196989160350306 -140.43319657724166 139.21506628885933 210.16870282748488 0.0000000000000000 0.0000000000000000 0.0000000000000000 0.0000000000000000 3.0005949500352127 3.0011899946298559 1.0005950445989136 1.0002985215799165 6.7060842715949622 6.7060843800253824 1.0002974781186256 
-30.950122224492965 -127.64274310842590 142.71739137379708 -30.950122224492951 -127.64274310842586 142.71739137379703 -2.5978670140378273 5.1625907344996422e-08 2.0291692678609000e-08 1.7352533090179899e-07 0.0000000000000000 3.9421406135102532e-12 1.9243578085192947e-12 4.0036693405021140e-10 4.6776643864510845e-07 5.7597220766362412e-15 -8.5400428641811609e-15 4.3355518094619691e-14 0.0000000000000000 -30.948229910445860 -127.64113600963313 142.72864290474456 229.21992526850030 0.0000000000000000 0.0000000000000000 0.0000000000000000 0.0000000000000000 3.0005757253831624 3.0011515342553143 1.0005758088756300 1.0002901373213202 6.7504193623054149 6.7504219374616543 1.0002878628899223 
-48.409592011478622 -130.90672286752132 146.84929092299035 -48.409592011478622 -130.90672286752127 146.84929092299035 -2.5868597057564768 3.4139306070547234e-08 1.0885412695397852e-07 3.7265285658015750e-08 0.0000000000000000 9.0325716657727671e-11 -9.0407399509019140e-11 7.7604521779134559e-10 4.6117061591761620e-07 5.9227562920078221e-15 -2.3536835095166651e-14 4.7639553672542637e-14 0.0000000000000000 -48.406431667502837 -130.90513559487593 146.85896726379221 225.63426853136377 0.0000000000000000 0.0000000000000000 0.0000000000000000 0.0000000000000000 3.0006086590781815 3.0012174210997768 1.0006087620267439 1.0003025093558295 6.8149726119051497 6.8149677907158468 1.0003043346666027 
-53.012932386348140 -84.939902629084187 77.682918104635235 -53.012932386348140 -84.939902629084173 77.682918104635277 -3.1110661716109367 -4.0171420586200425e-08 2.4097468889319093e-07 -5.7211282984769421e-07 0.0000000000000000 -2.8335259426000170e-11 8.2898226896625090e-11 8.2187767225426882e-10 5.9885011012132209e-07 1.3867317194135541e-14 1.5166777193371248e-13 5.5902422222001551e-14 0.0000000000000000 -53.009977022357148 -84.940192361847963 77.707205907375524 356.07450292316213 0.0000000000000000 0.0000000000000000 0.0000000000000000 0.0000000000000000 3.0005100653454382 3.0010201848881284 1.0005101195438260 1.0002587884313987 7.2369168336978680 7.2369165985173236 1.0002550268718950 
-40.315597448728930 -85.652898365843654 67.463375291284109 -40.315597448728923 -85.652898365843626 67.463375291284123 -3.4404102227199340 -2.7296296925591170e-08 8.6565008269491444e-08 -2.9345241175686241e-07 0.0000000000000000 -6.8402544779736560e-12 1.8854673607125493e-11 8.6662480104188116e-10 5.9657229458107478e-07 1.1599594152901282e-14 1.6443470693733589e-14 -2.9462073982160536e-14 0.0000000000000000 -40.313282635619565 -85.652866469445740 67.489144002613742 334.72004880612383 0.0000000000000000 0.0000000000000000 0.0000000000000000 0.0000000000000000 3.0005007011251235 3.0010014636003031 1.0005007624772828 1.0002566101512884 7.9251190586183489 7.9251191006117585 1.0002503497644042 
-42.932518467029759 -94.071309593206934 83.251410462385806 -42.932518467029773 -94.071309593206934 83.251410462385806 -2.9264178252370745 2.5779937519990364e-07 1.1938061411538011e-07 -3.2000061666266550e-07 0.0000000000000000 1.7472366778469224e-11 5.4223963352829012e-11 8.0334253065077839e-10 5.9854313086380847e-07 6.2562454563817847e-14 4.3482142063786833e-14 1.2100338718879877e-13 0.0000000000000000 -42.930125987095458 -94.071309017270835 83.274511392489799 283.94561953274422 0.0000000000000000 0.0000000000000000 0.0000000000000000 0.0000000000000000 3.0005279917459493 3.0010560467768661 1.0005280550327880 1.0002627512481255 7.0482652092242795 7.0482654996999079 1.0002639925154460 
-44.948866484854072 -98.970330675568732 67.990210828896238 -44.948866484854072 -98.970330675568690 67.990210828896181 -3.2591959254619152 1.1038246173342715e-07 1.5044063028590967e-07 -4.0357913042030499e-07 0.0000000000000000 5.2700154895383988e-12 7.4181372849979610e-13 9.0198661734097740e-10 6.0141785608351877e-07 -4.5546019842663443e-14 2.8802069864248300e-15 -1.1425949588402043e-13 0.0000000000000000 -44.946335306532468 -98.969717126470769 68.015559797458934 339.42980011114588 0.0000000000000000 0.0000000000000000 0.0000000000000000 0.0000000000000000 3.0005250694027032 3.0010502104503347 1.0005251410505744 1.0002617760736447 7.6626520331450365 7.6626519983397561 1.0002625358426085 
-35.674092905619766 -100.83343570558065 75.336096081210641 -35.674092905619766 -100.83343570558060 75.336096081210613 -3.1250941997345425 1.1952845742650732e-07 1.2635589487274594e-07 -2.5990968107787415e-07 0.0000000000000000 1.3764431281598810e-11 1.4631772806253458e-11 8.2742687088380601e-10 6.0624852123476720e-07 5.1878062233517038e-14 -1.9863215031132741e-14 2.2004704227980555e-14 0.0000000000000000 -35.672109309640206 -100.83293553867907 75.360366609178811 338.44965823895870 0.0000000000000000 0.0000000000000000 0.0000000000000000 0.0000000000000000 3.0004879783357996 3.0009760149256781 1.0004880365918642 1.0002542946911717 7.3144086843037135 7.3144086215997755 1.0002439884494410 
-48.978508139709113 -111.99314160448061 65.357297286196115 -48.978508139709113 -111.99314160448058 65.357297286196143 -3.1217422030570794 2.1688219125811693e-07 1.8502115009997478e-07 -2.8166595729648012e-07 -3.0319601204018514 5.6551522904617346e-12 1.2756297754212833e-12 9.1966991661029951e-10 5.9567247802684234e-07 -2.9352111406651398e-14 5.3304059641127262e-14 -2.7566562504536244e-14 5.9514676106362851e-07 -48.975793059600008 -111.99207679200002 65.383142959360015 326.57209562220959 0.0000000000000000 0.0000000000000000 0.0000000000000000 0.0000000000000000 3.0005400416965768 3.0010801490830614 1.0005401073886748 1.0002666835630838 7.4708290897924998 7.4708288931573135 1.0002700170034626 
-25.241168630954245 -110.48288381996146 67.444204387948346 -25.241168630954238 -110.48288381996146 67.444204387948346 -3.2843196842555691 4.2152203134912385e-08 9.4539937024867334e-08 -2.8639476571243606e-07 0.0000000000000000 3.3979667495541428e-12 1.2119649901720653e-12 9.0565729915503844e-10 5.9692331282517889e-07 4.1801554734600975e-15 -8.7791798691166060e-15 -6.0733540245062701e-15 0.0000000000000000 -25.239536857883341 -110.48187134057846 67.469656361758609 349.35568362690350 0.0000000000000000 0.0000000000000000 0.0000000000000000 0.0000000000000000 3.0005180770087954 3.0010362183212647 1.0005181413147883 1.0002610251045478 7.7216862365281642 7.7216862689770647 1.0002590369879270 
-44.078344197836714 -111.26964130645695 76.428644989451897 -44.078344197836714 -111.26964130645688 76.428644989451882 -2.9247956942267224 1.2365648388847219e-07 -8.5348271037101586e-08 -1.9644513637719852e-07 0.0000000000000000 5.1908045461783450e-12 1.2437733135084450e-12 8.4533897243277423e-10 6.0133250055304911e-07 2.3178290889446680e-15 -2.6514368998960948e-14 6.0934015473512258e-14 0.0000000000000000 -44.075852747763513 -111.26860156453857 76.452402029906395 268.59635586333832 0.0000000000000000 0.0000000000000000 0.0000000000000000 0.0000000000000000 3.0005557686083697 3.0011116171801571 1.0005558485751849 1.0002617224013715 7.1836657149116245 7.1836660397960301 1.0002778856568246 
-58.258513582291108 -106.62754401055918 105.32075510716840 -58.258513582291080 -106.62754401055918 105.32075510716837 -2.3327261230146634 4.4338921529886582e-08 3.4814206729188509e-07 -8.7295586448020882e-08 0.0000000000000000 5.0313894374123533e-11 1.8352765527137408e-10 7.3860312414983201e-10 6.5216153155052280e-07 -2.6248822990861027e-14 2.0889350519419973e-14 -2.3214630258292008e-14 0.0000000000000000 -58.254647241440821 -106.62760994408018 105.33920711112118 241.62621693813244 0.0000000000000000 0.0000000000000000 0.0000000000000000 0.0000000000000000 3.0006753097747736 3.0013507401769703 1.0006754304086802 1.0003330618546531 6.6058907792564394 6.6058883984355550 1.0003376581789494 
-64.374721259155720 -90.089699997854623 96.667975225077086 -64.374721259155706 -90.089699997854666 96.667975225077058 -2.7514978122650460 -1.3300998247587059e-07 1.3524224690497096e-07 1.4542434896560362e-07 0.0000000000000000 -2.2358522741797803e-11 1.0174140584027787e-10 7.0691062593044686e-10 5.7376180545127825e-07 -5.9008019185701947e-15 1.8635457668400886e-14 -9.2526498205081947e-14 0.0000000000000000 -64.370648572599308 -90.090304358695661 96.688480747766732 239.98138923263960 0.0000000000000000 0.0000000000000000 0.0000000000000000 0.0000000000000000 3.0005717756007901 3.0011436220391534 1.0005718464398432 1.0002738027989835 6.8922493145551877 6.8922487781757411 1.0002858818779690 
-75.918460076827856 -99.702209786969192 101.30660890502232 -75.918460076827884 -99.702209786969121 101.30660890502227 -2.6558639588162611 -2.4986891848815085e-07 2.7223956316839376e-07 -6.1985675765668904e-08 0.0000000000000000 -4.0956410237630555e-11 1.2962214939140577e-10 7.0613303945456219e-10 6.1105876762808954e-07 2.8277545301130820e-14 -1.4769559888044520e-14 -7.5247538373013036e-15 0.0000000000000000 -75.913673002404863 -99.702254402691466 101.32606574872912 288.13617662859207 0.0000000000000000 0.0000000000000000 0.0000000000000000 0.0000000000000000 3.0006012161167166 3.0012025183808402 1.0006013022672562 1.0002916675407172 6.8607939620790139 6.8607920528777191 1.0003006061669559 
-55.168318025205572 -93.585980639874620 103.30706555620323 -55.168318025205572 -93.585980639874663 103.30706555620326 -2.6588300500314448 -2.0975933918215529e-08 1.4888736140357916e-07 4.5681128140559253e-08 0.0000000000000000 3.6714441632836666e-11 1.4511854666933161e-10 7.4538921108802782e-10 5.9066172904972750e-07 2.3983916121601332e-14 1.1706573301481291e-14 1.1815414045289927e-14 0.0000000000000000 -55.164710769962618 -93.586508083202432 103.32606452766413 222.68531933077850 0.0000000000000000 0.0000000000000000 0.0000000000000000 0.0000000000000000 3.0005884530367224 3.0011769769508323 1.0005885239160011 1.0002924177783030 6.9248451608487853 6.9248470319238926 1.0002942187857622 
-45.765346262457598 -175.89908454973880 155.64034148338902 -45.765346262457577 -175.89908454973883 155.64034148338899 -2.6744530503450235 -9.9394187748598984e-08 -1.5072269877447815e-07 2.7569721197921568e-07 0.0000000000000000 5.3464096756543353e-12 3.9471060968299110e-12 3.1362406421875377e-10 4.1039746680790404e-07 1.1249458697011540e-14 8.5726228245085605e-15 -2.1610862019775754e-14 0.0000000000000000 -45.762777822239421 -175.89580528354742 155.64915507299250 248.91339099022119 0.0000000000000000 0.0000000000000000 0.0000000000000000 0.0000000000000000 3.0005762850444877 3.0011526456246993 1.0005763605829443 1.0002801727197128 6.7567247440647966 6.7567247432122501 1.0002881387772502 
-51.438322790899882 -185.56642567262327 168.14725978647724 -51.438322790899868 -185.56642567262324 168.14725978647724 -2.7646274050932700 1.9777058033589312e-09 -1.0791992606322331e-09 4.8282016388409531e-09 -2.7899727211987222 5.8911132807919209e-12 4.3303941162087253e-12 2.2964347090592696e-10 4.0630545031701256e-07 4.0730573479390695e-17 5.4737537518168811e-15 4.9104709041802506e-15 4.0925440228091130e-07 -51.435495451599998 -185.56281141599996 168.15371392000000 294.81703600272857 0.0000000000000000 0.0000000000000000 0.0000000000000000 0.0000000000000000 3.0005327360235436 3.0010655368017680 1.0005328007804890 1.0002679800821108 6.8468842630560189 6.8468842388377880 1.0002663649315977 
-42.675428169090722 -171.18486266753146 166.26249871473371 -42.675428169090736 -171.18486266753149 166.26249871473371 -2.7496127919397648 1.3437038265968271e-08 -1.4007469444130130e-08 9.1018555597655426e-08 0.0000000000000000 1.1181023414184517e-11 -4.2366253158158206e-11 2.8723712967777962e-10 4.0683831491936160e-07 1.0231461719876242e-15 -6.6322855729280280e-15 6.6221723330181862e-15 0.0000000000000000 -42.672974891599750 -171.18173466392949 166.26923354793541 271.88244999766295 0.0000000000000000 0.0000000000000000 0.0000000000000000 0.0000000000000000 3.0005309742667521 3.0010620149136127 1.0005310406492784 1.0002680304901976 6.7963064196454450 6.7963061944195244 1.0002654850884065 
-59.385924967154580 -178.02073618224253 157.74219899246611 -59.385924967154558 -178.02073618224253 157.74219899246603 -2.7849428622161727 -7.4748171321979935e-08 -2.1164771268167628e-08 1.0818884059626372e-08 0.0000000000000000 6.6434077748527007e-12 4.0279684969390939e-12 2.9950981278448197e-10 4.1889404069216807e-07 8.7993669722410479e-15 -1.4301419234392815e-15 1.1474863164049678e-14 0.0000000000000000 -59.382734921100123 -178.01738339707751 157.75061606229067 243.94852352315442 0.0000000000000000 0.0000000000000000 0.0000000000000000 0.0000000000000000 3.0005257823198068 3.0010516266144638 1.0005258442966927 1.0002675426091965 6.8454545411868519 6.8454545238771809 1.0002628876132240 
-30.662098371304154 -102.72566963228152 95.307709006178555 -30.662098371304172 -102.72566963228154 95.307709006178541 -2.5130618158108606 9.2298864586098407e-08 1.7244211562145899e-07 -4.6070856394881283e-07 0.0000000000000000 1.6457025308256851e-11 6.0899979921615246e-11 7.2000398979537225e-10 6.0515323227557985e-07 -4.2444104855426692e-14 1.1039538761114572e-13 -4.2398382841045205e-14 0.0000000000000000 -30.660097366607719 -102.72526557899965 95.328291536857705 204.58703120518373 0.0000000000000000 0.0000000000000000 0.0000000000000000 0.0000000000000000 3.0005935709488036 3.0011872193896632 1.0005936484427773 1.0002925952070576 6.6037868478581556 6.6037878936237204 1.0002967801377343 
-18.805559619201766 -110.90697830631919 93.333468738238935 -18.805559619201755 -110.90697830631917 93.333468738238935 -2.7104100035534424 1.4626542225907481e-07 3.4846695102345012e-08 -3.8107048933969588e-07 0.0000000000000000 2.7876244606921123e-12 1.2383271491556158e-12 7.3186517263179596e-10 5.9233312318555782e-07 6.7712776782330363e-14 1.3393552666159185e-15 -2.4035103306214844e-14 0.0000000000000000 -18.804221549666405 -110.90595113131390 93.354036648627854 267.24800799435923 0.0000000000000000 0.0000000000000000 0.0000000000000000 0.0000000000000000 3.0005416858589533 3.0010834367488202 1.0005417508920080 1.0002729390458147 6.8413159905933645 6.8413155787582323 1.0002708389015218 
-33.817864235025596 -104.71125296494171 84.985237123358800 -33.817864235025588 -104.71125296494166 84.985237123358772 -2.8178447990983519 1.2273155133106354e-07 1.5120141564827487e-08 -3.3657159228175609e-07 0.0000000000000000 5.2878337631375848e-12 4.0595497355648585e-11 7.5228448867401454e-10 5.9224615068106355e-07 -2.3664367898353432e-14 7.9530236641877850e-15 -1.9518029102720090e-14 0.0000000000000000 -33.815892125380543 -104.71065599625929 85.007910193808286 270.69679205096202 0.0000000000000000 0.0000000000000000 0.0000000000000000 0.0000000000000000 3.0005100282148809 3.0010201210457699 1.0005100928331558 1.0002633810832180 6.8669376874471491 6.8669375483153754 1.0002550136240271 
-18.922527129890039 -100.38034355206193 95.377881772708193 -18.922527129890042 -100.38034355206194 95.377881772708193 -2.6342148314173701 4.3327110249148015e-08 1.3229322391679419e-08 -1.1785593587640262e-07 0.0000000000000000 2.7978338504493221e-12 7.9136436986759772e-13 7.1813641144835572e-10 5.7521543147114342e-07 3.3784009824917307e-14 2.6976752923707829e-14 4.7457070777839092e-15 0.0000000000000000 -18.921183722278450 -100.37968114352928 95.398064000337470 185.31956687594098 0.0000000000000000 0.0000000000000000 0.0000000000000000 0.0000000000000000 3.0005486659556064 3.0010973944048782 1.0005487284511569 1.0002729759109061 6.7019133205159411 6.7019136286529353 1.0002743268237775 
-31.126236324918995 -117.98047864447982 173.20683259377606 -31.126236324918985 -117.98047864447975 173.20683259377608 -2.9377759028577115 1.3978604684323698e-07 1.3026990040138810e-07 1.1893320439015057e-07 0.0000000000000000 3.9574207686745589e-11 -8.8736459639146042e-13 2.6353600940645170e-10 4.3590541824782103e-07 -2.6289231330245581e-15 -1.1382990492657468e-14 -6.6253048081474601e-15 0.0000000000000000 -31.124431206993112 -117.97934695114738 173.21200361760444 258.17126679857051 0.0000000000000000 0.0000000000000000 0.0000000000000000 0.0000000000000000 3.0005311140238282 3.0010622894643864 1.0005311754423436 1.0002678926307191 7.1324924238404321 7.1324887593191031 1.0002655524960078 
-30.643993825200941 -133.13625533663458 164.80131562846040 -30.643993825200941 -133.13625533663446 164.80131562846046 -2.7802511718121350 1.4593588549563296e-07 -1.5396101512121375e-09 5.2201276426644448e-08 0.0000000000000000 4.7484188841044516e-11 -1.3315170191881206e-11 3.2071519615240058e-10 4.2127616982043256e-07 -5.8540584117938324e-15 -7.8038642187449497e-15 1.3284413915699620e-14 0.0000000000000000 -30.642131568542830 -133.13454878399213 164.80820313575899 262.24283076768535 0.0000000000000000 0.0000000000000000 0.0000000000000000 0.0000000000000000 3.0005459699812032 3.0010920115585931 1.0005460415801044 1.0002770535769372 6.9201272122593585 6.9201378956011288 1.0002729834606792 
-42.679218081040489 -120.10692272817010 163.69722880081861 -42.679218081040510 -120.10692272817006 163.69722880081869 -2.7048202102336747 2.3032831629524626e-07 1.6182765551802844e-07 1.4430500356498972e-07 0.0000000000000000 6.8149844946920440e-11 -1.8473260540289910e-11 4.7992066905309122e-10 4.2879613564053662e-07 -1.8636485911748993e-14 -1.8829291771442571e-14 -3.8924808468855401e-14 0.0000000000000000 -42.676694985445003 -120.10595080876966 163.70375490782192 268.28772502602959 0.0000000000000000 0.0000000000000000 0.0000000000000000 0.0000000000000000 3.0006115151043109 3.0012231263570559 1.0006116112570433 1.0002942865753637 6.9234309695310703 6.9233571638658891 1.0003057588981894 
-23.748886997801133 -114.23510995828211 161.80512092134001 -23.748886997801144 -114.23510995828204 161.80512092133998 -2.8919745995955068 7.0565733803354710e-08 4.9122515950106200e-08 1.2992891074050356e-07 0.0000000000000000 3.2563833899344756e-12 1.3729013585705998e-12 2.7221810222632930e-10 4.3854015121693491e-07 -5.7607860538867392e-15 -1.1666626000953069e-14 1.3459871632126002e-14 0.0000000000000000 -23.747323328369049 -114.23396745764113 161.81277151251504 321.01516800445251 0.0000000000000000 0.0000000000000000 0.0000000000000000 0.0000000000000000 3.0005250957497753 3.0010502541569402 1.0005251584091603 1.0002680498644512 7.0586049619480224 7.0586066548705997 1.0002625448125793 
-6.4642228333899698 -104.98837484894980 109.31394631105317 -6.4642228333899689 -104.98837484894983 109.31394631105314 -2.3492467303493796 1.5721383427499965e-10 1.4541242281925388e-08 -1.9536476541111099e-07 -2.2673198723672963 1.6137389276422998e-12 9.8464856060354045e-13 6.2459131616732222e-10 5.0488379327139306e-07 -3.4000897122280848e-15 2.1674006908965664e-15 5.7645850202231790e-14 4.8401845695597724e-07 -6.4634479885999987 -104.98755276399999 109.33149947120000 327.67017865987640 0.0000000000000000 0.0000000000000000 0.0000000000000000 0.0000000000000000 3.0005383384502640 3.0010767458402490 1.0005384073925414 1.0002728523213986 6.0821070190480775 6.0820923472746857 1.0002691675487958 
-11.807857147596755 -97.117429882415252 101.41864070847414 -11.807857147596753 -97.117429882415266 101.41864070847416 -2.5649495645059801 -3.2953527753792702e-08 9.0302463319857388e-09 -2.2903831622350221e-07 -2.5226607473846197 2.1209022493980101e-12 6.5707508878354304e-13 6.7758980371035438e-10 5.4842069915242880e-07 7.2728711560042688e-15 -7.0155569124576454e-15 3.5477656023765479e-14 5.4476357619536864e-07 -11.806838433999999 -97.116880539599975 101.43768333439998 212.90238721710071 0.0000000000000000 0.0000000000000000 0.0000000000000000 0.0000000000000000 3.0005317423646800 3.0010635490121862 1.0005318066498325 1.0002689967070810 6.4669488795626915 6.4669515420270489 1.0002658680183047 
-15.850807862182592 -110.36111105140169 103.07869722579720 -15.850807862182592 -110.36111105140166 103.07869722579717 -2.4588779508394416 1.0904461053586549e-07 1.1627992734330403e-08 -4.2441050082613695e-07 0.0000000000000000 2.5053516661439901e-12 1.2046305793156351e-12 6.6645423207889475e-10 5.3704695205126811e-07 -1.9274075333005471e-14 4.0456730512826480e-15 8.0641032241556632e-14 0.0000000000000000 -15.849604639409371 -110.36010279166017 103.09742667861765 236.22178992679409 0.0000000000000000 0.0000000000000000 0.0000000000000000 0.0000000000000000 3.0005354633856665 3.0010709951868209 1.0005355318036235 1.0002737663229651 6.3371998080728114 6.3372016055191400 1.0002677300966409 
-23.751142426754132 -99.534845570594911 102.26296359455289 -23.751142426754132 -99.534845570594882 102.26296359455289 -2.4879809379467397 1.1612919533420926e-07 2.0778875550016898e-07 -2.8485673213145266e-07 0.0000000000000000 3.2579303295941775e-12 7.5618851458347791e-13 6.7192315600372875e-10 5.5437957014977601e-07 4.6672193156091561e-14 -1.6367037608717119e-14 6.5229234474565167e-14 0.0000000000000000 -23.749578654390465 -99.534212460059550 102.28184693721489 211.57004919854941 0.0000000000000000 0.0000000000000000 0.0000000000000000 0.0000000000000000 3.0005602608222497 3.0011205989801089 1.0005603381604200 1.0002814023548707 6.4546273794898061 6.4546202615298656 1.0002801297608768 
-54.090754163749708 -108.37171963623709 113.82747543917677 -54.090754163749715 -108.37171963623709 113.82747543917681 -2.0524554158945847 1.7156306808618774e-07 5.3063686567725012e-07 -3.5232615549520199e-07 0.0000000000000000 1.3768690924888762e-10 1.6985755905096582e-10 8.1137308152269189e-10 7.4671285490747957e-07 1.4177657357233700e-13 2.1036390277656088e-13 -2.8287839775427834e-13 0.0000000000000000 -54.087034329299712 -108.37170302860723 113.84396407125838 191.01171882188567 0.0000000000000000 0.0000000000000000 0.0000000000000000 0.0000000000000000 3.0007668577094844 3.0015338700969476 1.0007670123968593 1.0003677510572466 6.2804458629805957 6.2804456775948703 1.0003834327098542 
-41.693927884517066 -107.74895755215519 110.95951599265210 -41.693927884517059 -107.74895755215525 110.95951599265210 -2.2085435146318955 -8.2493339186197504e-08 3.3386292231217787e-07 2.0405427191246328e-08 0.0000000000000000 1.4123771844537119e-10 7.4857294934691089e-11 7.6765827653390799e-10 5.7426209867089657e-07 9.5902850752427022e-14 -7.8891705327016288e-14 -6.5938556743452572e-14 0.0000000000000000 -41.690910404717421 -107.74885629568415 110.97670241767709 270.34727434602189 0.0000000000000000 0.0000000000000000 0.0000000000000000 0.0000000000000000 3.0006841459021407 3.0013684006921104 1.0006842547944919 1.0003390960240750 6.4418918774985077 6.4419046792092081 1.0003420689224141 