# For a description of the Tecplot format see the Tecplot User's guide.
#
Variables=x,y,z,s_u,s_v,s_w,s_p,mono_f_vel_u,mono_f_vel_v,mono_f_vel_w,const,u_nu,v_nu,w_nu,p_nu,x_nu,y_nu,z_nu,const,u_ref,v_ref,w_ref,vol_ref,x_ref,y_ref,z_ref,const,I1,I2,I3,J,p1,p2,p3
Zone f=fepoint, n=1339, e=6475, et=brick, c=black
-60.5698 -70.2496 173.121 -60.569838405382825 -70.249607257401394 173.12057989325925 -145.30393161469377 1.8630356707327339e-06 1.6921827930500662e-06 -8.9761032342160629e-08 -150.05225985807357 1.7948950492563395e-08 -7.0197381241143820e-10 8.8954833827870061e-06 0.0040618675542610687 -1.8776529231186255e-11 2.8126512729638018e-11 -6.1307997121524212e-11 0.0040605017054051937 -58.668039002000000 -70.473359259200009 176.35421013599998 215.13583165143561 0.0000000000000000 0.0000000000000000 0.0000000000000000 0.0000000000000000 3.3644010883208106 3.7576174835792320 1.3938643773161983 1.1792097023610395 1539.4829596173090 1539.4801998316086 1.1806263491191678 
-67.037972842972053 -76.314131118396475 181.74465836710274 -67.037972842972053 -76.314131118396489 181.74465836710274 -154.99045277750344 -2.1035172969003881e-05 -9.8574635599190550e-06 9.0160949877001867e-06 -156.79430223667211 1.9582175381227529e-08 -3.1546720791197913e-10 6.2717062121464551e-06 0.0041295141974824270 6.7616849469711543e-11 5.3429265210311135e-11 -7.8345169794536914e-11 0.0041440615157091031 -64.963123215600007 -76.414687385200040 184.02450960799996 253.42820447565578 0.0000000000000000 0.0000000000000000 0.0000000000000000 0.0000000000000000 3.3679042641026369 3.7654632250816387 1.3982435386939638 1.1792097023610377 1565.4762282609336 1565.4857283607414 1.1824918071527695 
-71.867656914442847 -71.383426832705482 174.11277359792837 -71.867656914442833 -71.383426832705482 174.11277359792840 -149.69999761201089 -8.1102178135998560e-06 -7.9913606138157802e-07 -2.1402483959561293e-06 -157.86573789213045 2.0801692535155070e-08 -6.2970784142635228e-10 8.5936198104263894e-06 0.0040606909871320433 1.9310351258771090e-11 3.6522290545450823e-11 -4.7435552788922479e-11 0.0040721023871991367 -69.663592608799988 -71.584146237200002 177.23667228800005 218.29881668600640 0.0000000000000000 0.0000000000000000 0.0000000000000000 0.0000000000000000 3.3697088003108813 3.7692161720697608 1.4001957786459684 1.1792097023610404 1562.4583837817843 1562.4623627898088 1.1833229308473678 
-59.025486680444153 -87.860778551607865 167.85484514700175 -59.025486680444153 -87.860778551607851 167.85484514700170 -123.18137652091015 -8.5984424213474040e-06 2.0266162239604674e-05 3.7385471890624492e-05 0.0000000000000000 1.7558997533750897e-08 4.2041148340388185e-10 1.0497522918484492e-05 0.0040397353255975941 5.3937246988483627e-11 -2.5374844952057291e-11 -8.9604343300140494e-11 0.0000000000000000 -57.165005282198301 -87.726774323660578 171.67083873969227 259.76550921814646 0.0000000000000000 0.0000000000000000 0.0000000000000000 0.0000000000000000 3.3489460874082941 3.7229785010337220 1.3745109823093602 1.1743005077529638 1451.3470275478023 1451.3516333953394 1.1723882753368640 
-91.631167359223056 -83.421751480419559 106.51281120860222 -91.631167359223070 -83.421751480419530 106.51281120860222 -75.779030259357469 1.6084489233375237e-05 3.2197731148438543e-05 -1.7959420868431762e-05 0.0000000000000000 2.5792038893523994e-08 1.3750534044731921e-10 2.9160134804584455e-05 0.0039577595256397842 -1.0163278468702526e-10 -2.0403527397829605e-10 3.6408852467053493e-11 0.0000000000000000 -88.898344731952406 -83.377922378373768 117.11292023788836 283.91631954144174 0.0000000000000000 0.0000000000000000 0.0000000000000000 0.0000000000000000 3.3554660221767088 3.7362264289284903 1.3812503308701449 1.1765521233404155 1371.9871903874443 1371.8344113487572 1.1752668959968160 
-100.56760324605135 -66.603888908949457 96.514252932453729 -100.56760324605135 -66.603888908949457 96.514252932453715 -130.27736222661716 8.7971532478728680e-06 2.3054913480373148e-05 -8.9203465560444748e-05 -142.38273532005795 2.8048522782153643e-08 -9.3432106496038614e-10 3.2202081744259203e-05 0.0042873265641599108 -5.4952231309397696e-11 -8.0039881465543147e-11 3.9248324311300302e-10 0.0042685982274710665 -97.595692787999965 -66.901700632800015 108.22015140479995 322.25788568967050 0.0000000000000000 0.0000000000000000 0.0000000000000000 0.0000000000000000 3.3651381587551445 3.7597581675627918 1.3952980420735948 1.1792097023610388 1513.0584555707530 1513.1347071016642 1.1812348459638571 
-82.141465409483743 -67.246696546335173 96.958733630793589 -82.141465409483757 -67.246696546335201 96.958733630793617 -132.18674915884060 -1.3037065959286029e-05 2.1900012602829537e-05 -3.5785677353348924e-05 0.0000000000000000 2.3395866299846801e-08 -8.9335228103948339e-10 3.2066853577816801e-05 0.0042331212541590136 1.3696832747521773e-10 -3.5626691940427009e-11 3.3587885134443803e-10 0.0000000000000000 -79.662532843379708 -67.531450170133141 108.61547480962874 295.38956150422752 0.0000000000000000 0.0000000000000000 0.0000000000000000 0.0000000000000000 3.3557479811984350 3.7381313256790762 1.3829383017366128 1.1762417319077976 1486.5801555377047 1486.5482917489496 1.1759739156129816 
-97.363987946982903 -81.851432941724511 96.970914139667983 -97.363987946982903 -81.851432941724454 96.970914139667940 -110.40454574751226 -1.9952861070776897e-05 3.3270836329565353e-05 -6.4867044601885703e-05 0.0000000000000000 2.7239600963735455e-08 3.7426284293928796e-11 3.2063147795469149e-05 0.0043068686234351916 2.5491505851199281e-10 6.3827893918826815e-11 5.7693390095377895e-10 0.0000000000000000 -94.477787882002133 -81.839503548705352 108.62630821647583 293.80807890400462 0.0000000000000000 0.0000000000000000 0.0000000000000000 0.0000000000000000 3.3577562918308255 3.7417943010516650 1.3845758901404830 1.1766749186292391 1434.6975127354008 1434.6291286299156 1.1766722662398481 
-48.951368936529789 -126.88034338706636 130.76765968649701 -48.951368936529818 -126.88034338706630 130.76765968649707 -13.368998834420116 1.7008042797066062e-05 8.3431838151539178e-07 6.6777536388152180e-06 0.0000000000000000 1.1491997615032223e-06 -3.8249843910545127e-08 2.1688927435659598e-05 0.0032499151012341581 -9.8903284486989388e-11 1.0576612198825967e-11 -2.4129209871880373e-10 0.0000000000000000 -47.292355390977058 -125.96433165720771 138.67232254046354 244.31333887135355 0.0000000000000000 0.0000000000000000 0.0000000000000000 0.0000000000000000 3.3740105484518912 3.7797789524817311 1.4065380039964261 1.1866391149987099 1343.3911878928923 1343.3934800020195 1.1859751017371278 
-35.460545413920244 -141.67164190594900 131.35179668551552 -35.460545413920265 -141.67164190594897 131.35179668551561 -11.297164804581950 1.4954397051374111e-05 9.3160945695253253e-06 5.4931786780848805e-06 0.0000000000000000 3.8570417845903006e-07 3.1434003277571050e-07 2.1778585008098293e-05 0.0033778538127839861 -3.2636339529274111e-10 2.0908169736486896e-10 -4.4199795507640249e-11 0.0000000000000000 -34.196989160350306 -140.43319657724166 139.21506628885933 210.16870282748488 0.0000000000000000 0.0000000000000000 0.0000000000000000 0.0000000000000000 3.3720406680377568 3.7757392207652076 1.4044586278571853 1.1852285490599253 1333.0753490927050 1333.0770219286567 1.1851000474898614 
-32.088018988078147 -128.60277995389984 135.31377305495590 -32.088018988078147 -128.60277995389978 135.31377305495596 -28.966473668752553 1.2674400667234248e-05 1.5086496689838366e-06 2.4612306539111624e-05 0.0000000000000000 1.0757189861099192e-08 3.0169409193092633e-09 2.0397771724134373e-05 0.0033983960545597050 -1.4049430386724871e-10 1.8612164104938795e-11 -2.9072194823952801e-12 0.0000000000000000 -30.948229910445860 -127.64113600963313 142.72864290474456 229.21992526850030 0.0000000000000000 0.0000000000000000 0.0000000000000000 0.0000000000000000 3.3646006903678662 3.7587098153096896 1.3947794643174234 1.1822985829670269 1341.8136334965750 1341.8136869053485 1.1810086321508209 
-50.096616093392299 -131.91394259368897 139.96012839569394 -50.096616093392271 -131.91394259368906 139.96012839569400 -6.7763084679485681 2.0779067321728625e-05 3.7714576834449914e-05 -1.9490431274628021e-05 0.0000000000000000 9.8846136762993362e-07 -1.8359876708895260e-07 1.8902666370749667e-05 0.0033104725924107017 -1.0797544667948479e-10 -3.5499259402783170e-10 5.4810338962727731e-11 0.0000000000000000 -48.406431667502837 -130.90513559487593 146.85896726379221 225.63426853136377 0.0000000000000000 0.0000000000000000 0.0000000000000000 0.0000000000000000 3.3788743717370511 3.7903399073063579 1.4122592823748004 1.1879496527089908 1337.5107425638957 1337.5052899726581 1.1883847572126056 
-54.736499147970513 -84.866383982606735 61.981561583047402 -54.736499147970548 -84.866383982606735 61.981561583047387 -105.20375848744139 -4.8547973417097688e-06 0.00015457152206352438 -0.00015299657368091516 0.0000000000000000 -2.0513393635598703e-07 7.8873028773621259e-07 4.6239232111266699e-05 0.0063775871224545132 8.8904182781089199e-11 5.5562128314632757e-09 1.8793862819328639e-09 0.0000000000000000 -53.009977022357148 -84.940192361847963 77.707205907375524 356.07450292316213 0.0000000000000000 0.0000000000000000 0.0000000000000000 0.0000000000000000 3.3701631304906829 3.7698414912453577 1.4003080162714712 1.1814193573504261 1416.0762180386907 1416.0057559713339 1.1832657971898213 
-41.680057759352472 -85.693072981017906 50.591072838790467 -41.680057759352472 -85.693072981017863 50.591072838790502 -254.42052851783833 2.2584174628282618e-05 3.7928477017225186e-05 -0.00012677878986742063 0.0000000000000000 9.5594989630918370e-08 1.7640542517152775e-07 4.6534391786247113e-05 0.0061578516325129602 8.5076575908984530e-10 5.5171923969329431e-10 -1.1504816120227983e-09 0.0000000000000000 -40.313282635619565 -85.652866469445740 67.489144002613742 334.72004880612383 0.0000000000000000 0.0000000000000000 0.0000000000000000 0.0000000000000000 3.3490036524215627 3.7249365813973152 1.3765145600584601 1.1755471549599761 1683.5276270303198 1683.5228164175007 1.1732206417719346 
-44.311134935001419 -94.266102344646157 68.315703535575437 -44.311134935001419 -94.266102344646185 68.315703535575480 -71.914104129714360 0.00014025089319866712 1.1272226862251581e-05 -5.8310529716732076e-05 0.0000000000000000 1.8493297299061293e-07 -6.9462061952251147e-07 4.4838637429020679e-05 0.0055402157366602652 3.1816666965110548e-09 2.2594962412247458e-10 5.0253240977058512e-09 0.0000000000000000 -42.930125987095458 -94.071309017270835 83.274511392489799 283.94561953274422 0.0000000000000000 0.0000000000000000 0.0000000000000000 0.0000000000000000 3.3750363510919219 3.7812954439485749 1.4069844298613601 1.1817891137726642 1388.0205749853196 1388.0200969126456 1.1861537686102386 
-46.470928652387954 -99.336848118792346 51.310339539470007 -46.470928652387990 -99.336848118792332 51.310339539470014 -152.67019655762806 0.00018400806167244614 5.2107127067349082e-05 -0.00020780933493399009 0.0000000000000000 1.4388927327413370e-08 1.1517871101318631e-09 4.5954855114160864e-05 0.0059443323732932133 -1.1331841569878827e-09 -1.6892103050027661e-09 -2.9297478796662593e-09 0.0000000000000000 -44.946335306532468 -98.969717126470769 68.015559797458934 339.42980011114588 0.0000000000000000 0.0000000000000000 0.0000000000000000 0.0000000000000000 3.3673806171422780 3.7663016812380374 1.3997073549395516 1.1805877985035831 1493.1199896418250 1493.2594192268491 1.1830651346555601 
-36.845472703487708 -101.21631469960820 59.475302050666279 -36.845472703487729 -101.21631469960818 59.475302050666258 -165.24642949045983 9.9635424726080929e-05 3.2810787254899711e-05 -7.8892681383517876e-05 0.0000000000000000 -9.9579156709469626e-08 -6.1526968860761020e-07 4.4733900526781034e-05 0.0056155757365008935 1.3358961564386431e-09 -1.3531657344428446e-09 9.9990198870080945e-10 0.0000000000000000 -35.672109309640206 -100.83293553867907 75.360366609178811 338.44965823895870 0.0000000000000000 0.0000000000000000 0.0000000000000000 0.0000000000000000 3.3437382094196546 3.7131705923265921 1.3699780164753443 1.1754555255157109 1515.0870172840464 1515.0679627669620 1.1704513539181669 
-50.611155148662625 -112.62923144508260 48.350589470974676 -50.611155148662640 -112.62923144508257 48.350589470974676 -123.00136680949512 0.00019651773969743159 -4.0367347170156187e-06 -0.00010549910744123626 -48.544732799041597 1.5434345079778922e-08 1.9989236932360654e-09 4.6855325198436055e-05 0.0049188466089814756 -2.1071915879970317e-09 9.2956614515626612e-10 4.7720059588772613e-10 0.0041958238897339666 -48.975793059600008 -111.99207679200002 65.383142959360015 326.57209562220959 0.0000000000000000 0.0000000000000000 0.0000000000000000 0.0000000000000000 3.3606684325999088 3.7486137808044551 1.3885095418746047 1.1796442807980363 1449.0763348665898 1449.2101183143170 1.1783246807927656 
-26.222395451679166 -111.08771129993680 50.696554629792672 -26.222395451679173 -111.08771129993683 50.696554629792672 -259.17518946597875 3.4984255004816013e-05 1.1061409206683444e-05 -9.4334124323225917e-05 0.0000000000000000 9.2760970571426071e-09 1.9006796136977755e-09 4.6141592150661381e-05 0.0053498330470139665 2.3610162569084916e-11 -4.6426549967840366e-10 2.4777939847989496e-10 0.0000000000000000 -25.239536857883341 -110.48187134057846 67.469656361758609 349.35568362690350 0.0000000000000000 0.0000000000000000 0.0000000000000000 0.0000000000000000 3.3533723078664472 3.7340585359939271 1.3812854690215415 1.1763912881874976 1710.8339754752963 1710.8179300601132 1.1752764749455622 
-45.576516755001379 -111.89075467915910 60.796278093716872 -45.576516755001400 -111.89075467915913 60.796278093716872 -92.756066160681499 9.3334761808064586e-05 -9.5077416143909979e-05 -4.4280302815322638e-05 0.0000000000000000 1.4163084871565701e-08 1.9518666682927233e-09 4.3068866851569958e-05 0.0047396469280755376 -8.7641568154241437e-10 6.1566110699444155e-11 1.4027110168184419e-09 0.0000000000000000 -44.075852747763513 -111.26860156453857 76.452402029906395 268.59635586333832 0.0000000000000000 0.0000000000000000 0.0000000000000000 0.0000000000000000 3.3706913173025166 3.7733129346862024 1.4034021527823959 1.1812816051856831 1452.2304022279932 1452.1883523157819 1.1846660357705436 
-60.210485539966420 -107.04094538142905 93.226307186664073 -60.210485539966399 -107.04094538142907 93.226307186664116 -2.6042343357795592 1.9802426476997775e-05 2.5723430952959012e-05 9.6144361197500528e-06 0.0000000000000000 1.4055335685259125e-06 -1.6656516996569389e-06 3.5429437755451350e-05 0.0032754966841972064 -1.5452587357856114e-10 -9.0754400980833370e-10 2.1816058887610638e-10 0.0000000000000000 -58.254647241440821 -106.62760994408018 105.33920711112118 241.62621693813244 0.0000000000000000 0.0000000000000000 0.0000000000000000 0.0000000000000000 3.3823811812760161 3.7988090214396273 1.4173085049936582 1.1895997027617702 1336.8075770470380 1336.7667630804142 1.1905035186992972 
-66.565701749397604 -90.077318605672929 83.401527159417469 -66.565701749397633 -90.077318605672886 83.401527159417526 -31.100150816955132 -2.3702704675661255e-05 -2.0824910362679178e-05 6.1099163910529673e-05 0.0000000000000000 1.4794057087056859e-06 -2.2980559757414979e-06 3.9480974668561973e-05 0.0041579772599725359 1.0605752934558760e-09 -5.7072600854912113e-10 -5.2240514967821957e-10 0.0000000000000000 -64.370648572599308 -90.090304358695661 96.688480747766732 239.98138923263960 0.0000000000000000 0.0000000000000000 0.0000000000000000 0.0000000000000000 3.3804914914851181 3.7939927500166419 1.4142748440000401 1.1844251349631660 1356.8548608809504 1356.7583191584638 1.1891993438828754 
-78.440702349262907 -99.948915952477265 88.642029083053956 -78.440702349262935 -99.948915952477321 88.642029083053941 -22.612897679175443 -3.1414275973715568e-05 4.7228411571313071e-05 -1.5892377054409061e-05 0.0000000000000000 2.1297665795866388e-06 -1.4251613546620559e-06 3.6974919378853168e-05 0.0040137104884150525 8.4645430596240774e-10 -1.0543579927602798e-09 5.4255524299114665e-10 0.0000000000000000 -75.913673002404863 -99.702254402691466 101.32606574872912 288.13617662859207 0.0000000000000000 0.0000000000000000 0.0000000000000000 0.0000000000000000 3.3824574130890470 3.7990175519257567 1.4174324048361406 1.1870556833727810 1355.2936415381507 1355.5567823781460 1.1905829939381780 
-57.050151292028694 -93.695001811127455 90.924008060238293 -57.050151292028673 -93.695001811127455 90.924008060238307 -30.479266610432429 2.5297308003525220e-06 2.9347341144501491e-05 3.3312988724099855e-05 0.0000000000000000 1.1221747540756548e-06 -1.9636499033621104e-06 3.6859867260048614e-05 0.0038044786410338185 1.8607985109498318e-10 -9.6798687548042908e-11 -1.6377270483489017e-10 0.0000000000000000 -55.164710769962618 -93.586508083202432 103.32606452766413 222.68531933077850 0.0000000000000000 0.0000000000000000 0.0000000000000000 0.0000000000000000 3.3775022952292955 3.7865079275424907 1.4097337963034309 1.1863675472738839 1383.8582422036989 1383.8786385658636 1.1873205912076090 
-47.309814960016269 -177.85802844546899 149.84091261032515 -47.309814960016261 -177.85802844546896 149.84091261032515 0.80263387362898631 -2.9354773270285027e-05 -1.3393796978148856e-05 4.6134576148909366e-05 0.0000000000000000 1.4600745001924764e-08 6.1560148090222810e-09 1.5978055767362775e-05 0.0033672032675990645 5.0993777141026946e-11 2.5357866985775113e-10 -2.7023592937386688e-10 0.0000000000000000 -45.762777822239421 -175.89580528354742 155.64915507299250 248.91339099022119 0.0000000000000000 0.0000000000000000 0.0000000000000000 0.0000000000000000 3.3768198435159169 3.7837976320265381 1.4076540743338015 1.1844925569088258 1299.5590695543654 1299.5631159447294 1.1864339524846630 
-53.138474118207824 -187.72548368634199 163.90037628199147 -53.138474118207803 -187.72548368634196 163.90037628199144 -5.8269686805601433 7.9198062956836196e-06 -8.8610584468090605e-06 -9.3655654958107745e-06 -15.052643259159774 1.6072504382957931e-08 6.7848775486822888e-09 1.1700624821031624e-05 0.0033415686145363672 -3.9496473713063601e-11 6.7851553912918841e-11 1.0065766442781241e-10 0.0033560094360620984 -51.435495451599998 -185.56281141599996 168.15371392000000 294.81703600272857 0.0000000000000000 0.0000000000000000 0.0000000000000000 0.0000000000000000 3.3604394832230535 3.7491338975918045 1.3893240472461470 1.1796491111747478 1277.4465885951247 1277.4494220653867 1.1787005978447382 
-44.138365129690307 -173.03103422812214 161.77633836019066 -44.138365129690321 -173.03103422812214 161.77633836019061 -3.1661989790685086 9.0050555948128527e-06 -7.5091177625813167e-06 2.4259878568810783e-06 0.0000000000000000 2.3462308103815244e-08 -2.7172751578175005e-07 1.2416867170189112e-05 0.0033862657627244364 -1.0845665689924384e-10 -1.2976398965888311e-10 -2.2266801223373119e-11 0.0000000000000000 -42.672974891599750 -171.18173466392949 166.26923354793541 271.88244999766295 0.0000000000000000 0.0000000000000000 0.0000000000000000 0.0000000000000000 3.3642777045104468 3.7573598240416235 1.3937304595761926 1.1810766960835837 1278.4886689734010 1278.4888093070485 1.1805649998003209 
-61.304181128987565 -180.02359830116566 152.20368404416359 -61.304181128987537 -180.02359830116569 152.20368404416365 -14.197453116725653 -4.1032016263611271e-06 -5.3802893873944672e-06 -3.6493206792038458e-06 0.0000000000000000 1.8134373058753539e-08 6.2940466172278767e-09 1.5259209583007305e-05 0.0034347352642018374 9.8331945430709510e-11 4.6530105034606745e-11 4.8267988263752949e-11 0.0000000000000000 -59.382734921100123 -178.01738339707751 157.75061606229067 243.94852352315442 0.0000000000000000 0.0000000000000000 0.0000000000000000 0.0000000000000000 3.3637310606951862 3.7555619625269214 1.3924409856072120 1.1808321889406455 1293.8136258340210 1293.8126795455685 1.1800192678404466 
-31.767968900784986 -103.14404973352255 81.925675709334570 -31.767968900784997 -103.14404973352252 81.925675709334598 -37.308177836952076 2.5013411737893467e-05 5.9273745578538463e-05 -0.00010235715454124181 0.0000000000000000 -6.0746984627986413e-07 1.8623825326848329e-07 3.8788285221977630e-05 0.0045722116063820328 -1.5797566899709429e-09 3.1662856236281574e-09 5.1093054214880579e-10 0.0000000000000000 -30.660097366607719 -102.72526557899965 95.328291536857705 204.58703120518373 0.0000000000000000 0.0000000000000000 0.0000000000000000 0.0000000000000000 3.3739662241972166 3.7762976274263305 1.4029275363202520 1.1829223968217943 1349.1431641769661 1349.1423158214091 1.1844421654006261 
-19.610175003238290 -111.52058454903835 79.799580874811028 -19.610175003238286 -111.52058454903832 79.799580874811014 -111.00727634577910 6.8540180102950543e-05 -2.5970557486351498e-06 -0.00010676178925750652 0.0000000000000000 7.6064897158722999e-09 1.9282682117705008e-09 3.7287329440971462e-05 0.0048254808748095217 1.7784344784994720e-09 2.6514913778904840e-11 -8.0865792327666663e-10 0.0000000000000000 -18.804221549666405 -110.90595113131390 93.354036648627854 267.24800799435923 0.0000000000000000 0.0000000000000000 0.0000000000000000 0.0000000000000000 3.3574052466621298 3.7405951867141076 1.3837163051652892 1.1781062086811938 1463.2350981601678 1463.2342580783522 1.1763216214260057 
-34.942716470727198 -105.20855128883522 70.269431638477101 -34.942716470727198 -105.20855128883522 70.269431638477059 -101.66808926494991 8.1415064757711813e-05 -2.7618164269181024e-05 -7.7863059628120431e-05 0.0000000000000000 -9.5346327163841701e-07 -4.1610951306023649e-08 4.2219370535172860e-05 0.0046441936947841491 -1.3093935816321545e-09 6.0854414114386752e-11 -6.8561511550313445e-11 0.0000000000000000 -33.815892125380543 -104.71065599625929 85.007910193808286 270.69679205096202 0.0000000000000000 0.0000000000000000 0.0000000000000000 0.0000000000000000 3.3521467510507152 3.7315830131751975 1.3800425336126707 1.1773880152516585 1416.4489189359708 1416.4582193084127 1.1747220236148908 
-19.730352435485003 -100.77604828469067 82.097776968480588 -19.730352435484992 -100.77604828469067 82.097776968480574 -76.122393538955549 3.2408604969437656e-05 -1.8423880161566287e-05 -1.9744923429282841e-05 0.0000000000000000 7.6368337764698441e-09 1.2435128482479740e-09 3.6588129578518640e-05 0.0043305042129826062 5.6658288253358787e-10 8.4297003675460940e-10 3.3680725945160112e-10 0.0000000000000000 -18.921183722278450 -100.37968114352928 95.398064000337470 185.31956687594098 0.0000000000000000 0.0000000000000000 0.0000000000000000 0.0000000000000000 3.3641609526939096 3.7554660344194648 1.3918723757472118 1.1793288026685436 1420.2041651971670 1420.2033594875609 1.1797896055492945 
-32.249951520968239 -118.70194685760066 169.63309242536599 -32.249951520968239 -118.70194685760072 169.63309242536604 -44.537693508771973 5.6608695626011753e-05 6.8238579681195019e-05 -5.5279415450569404e-06 0.0000000000000000 -1.9366671891392583e-07 -3.2559899353972940e-07 9.2594435953359897e-06 0.0040507609353750045 -7.2729050920677430e-11 1.8262901339707660e-12 -4.2364946687858339e-10 0.0000000000000000 -31.124431206993112 -117.97934695114738 173.21200361760444 258.17126679857051 0.0000000000000000 0.0000000000000000 0.0000000000000000 0.0000000000000000 3.3661922475438066 3.7606522000211084 1.3950672083579514 1.1819581657019196 1355.0787417122983 1355.0787881959843 1.1811272838806135 
-31.776353856953822 -134.18895388400787 160.14987393419770 -31.776353856953840 -134.18895388400782 160.14987393419776 -21.817832405357326 2.6391283798871721e-05 8.5139816833233318e-06 -8.4025295303461330e-06 0.0000000000000000 7.6584951775160019e-08 -3.2152327649990011e-07 1.2509901382014610e-05 0.0035881543243391836 -2.3346410355776022e-10 -1.8481379339833590e-10 -6.6650631592472088e-11 0.0000000000000000 -30.642131568542830 -133.13454878399213 164.80820313575899 262.24283076768535 0.0000000000000000 0.0000000000000000 0.0000000000000000 0.0000000000000000 3.3696601663492300 3.7690676383891746 1.4000835697122318 1.1833625449374299 1334.3143991798495 1334.3146015602176 1.1832501272703337 
-44.151235077780569 -120.83266057096219 158.96761330803878 -44.151235077780584 -120.83266057096218 158.96761330803881 -0.99940557754905701 6.4027231750730994e-05 1.5556175261286981e-05 -8.2425371701332665e-06 0.0000000000000000 1.7966345693709420e-07 -8.4188760020255168e-07 1.1842504951550524e-05 0.0036971036362029143 -2.9147400267075988e-10 -4.2449664632249525e-10 -9.6427339730326203e-10 0.0000000000000000 -42.676694985445003 -120.10595080876966 163.70375490782192 268.28772502602959 0.0000000000000000 0.0000000000000000 0.0000000000000000 0.0000000000000000 3.3844041170390011 3.8022541362945637 1.4186777871720397 1.1894276343607848 1331.0028223959055 1331.0019192534821 1.1910758440953220 
-24.689161361238234 -114.91760858015871 156.77095648294770 -24.689161361238234 -114.91760858015870 156.77095648294772 -63.041700310449542 2.4400734947511002e-05 2.0819875668670213e-05 1.4983084211601983e-05 0.0000000000000000 8.8889506311140565e-09 2.1447608133939866e-09 1.3869669206911796e-05 0.0037517881446301428 -1.4111771657334111e-10 -9.7215324743088427e-11 -2.5321684258533208e-10 0.0000000000000000 -23.747323328369049 -114.23396745764113 161.81277151251504 321.01516800445251 0.0000000000000000 0.0000000000000000 0.0000000000000000 0.0000000000000000 3.3593331401418953 3.7459405397959635 1.3871826980453028 1.1792466520001570 1381.6384113334182 1381.6380530101887 1.1777941833533319 
-6.9301567940495863 -105.47946590413807 97.763793836479053 -6.9301567940495836 -105.47946590413811 97.763793836479024 -8.1994100437250719 4.1677652424418192e-06 -5.9449929563421286e-06 -5.6656984584868396e-05 21.330693818631964 4.4047405167724216e-09 1.5432570776852117e-09 3.1821923215602517e-05 0.0032299954419165761 -4.2497367790837347e-11 1.0212032559125792e-11 8.6569314921232006e-10 0.0030826432573733738 -6.4634479885999987 -104.98755276399999 109.33149947120000 327.67017865987640 0.0000000000000000 0.0000000000000000 0.0000000000000000 0.0000000000000000 3.3619257535287801 3.7522788484211400 1.3909813281154197 1.1797664408682889 1255.4401988879388 1255.4400661065797 1.1793991281632852 
-12.420435649844594 -97.445592249177935 88.888405063150742 -12.420435649844594 -97.445592249177935 88.888405063150728 -59.321795656488348 3.6923170504170756e-06 -1.5275127144681260e-05 -7.3911322709130107e-05 -52.826362770013318 5.7910544692951751e-09 1.0312504183929150e-09 3.4522158689043181e-05 0.0038910491206451624 7.0915705645288554e-11 -5.5128361212705861e-11 5.0110160663914107e-10 0.0038802024031748808 -11.806838433999999 -97.116880539599975 101.43768333439998 212.90238721710071 0.0000000000000000 0.0000000000000000 0.0000000000000000 0.0000000000000000 3.3615283150704967 3.7510831303644432 1.3901681502353165 1.1792097023610379 1372.5884772759161 1372.5887151977861 1.1790536129232159 
-16.574336444346635 -110.96341783309344 90.754532572151376 -16.574336444346631 -110.96341783309344 90.754532572151390 -47.396755682730209 2.1347395462780043e-05 -1.1525667919938511e-05 -0.00014172567466126188 0.0000000000000000 6.8399302333155276e-09 1.8927677203350864e-09 3.3954410749714725e-05 0.0037209292705828179 -4.5476896516794177e-10 2.2916601062631612e-10 1.1138692620484630e-09 0.0000000000000000 -15.849604639409371 -110.36010279166017 103.09742667861765 236.22178992679409 0.0000000000000000 0.0000000000000000 0.0000000000000000 0.0000000000000000 3.3584181583232589 3.7446799110009197 1.3868746101568876 1.1791410227247625 1346.9954490110470 1346.9954623796293 1.1776575756088266 
-24.691478685584045 -99.913048481298517 89.837537907574074 -24.691478685584045 -99.913048481298560 89.837537907574131 -33.227517233667093 3.5556860941701777e-05 4.6886326637012324e-05 -8.2252934860063803e-05 0.0000000000000000 8.8895348304696142e-09 1.1885030737346369e-09 3.4233395886928981e-05 0.0036874150679387144 -4.0221937697786194e-10 -5.8373660649625048e-10 8.5418653525396802e-10 0.0000000000000000 -23.749578654390465 -99.534212460059550 102.28184693721489 211.57004919854941 0.0000000000000000 0.0000000000000000 0.0000000000000000 0.0000000000000000 3.3633200380941957 3.7554994400144324 1.3928248176096247 1.1808079590872429 1329.3508905727458 1329.3508493550655 1.1801800928810307 
-55.944575707160887 -108.85513105536390 102.80884022403166 -55.944575707160901 -108.85513105536391 102.80884022403167 1.0760901132810972 5.1551371150474398e-06 -4.2265942837062027e-06 -2.5094588060043115e-06 0.0000000000000000 1.6426735215668249e-06 -1.2211108347210643e-06 3.1908331832484722e-05 0.0028562202444298913 -4.9704297112554793e-10 -6.9454301078739346e-10 -5.3877505849657695e-11 0.0000000000000000 -54.087034329299712 -108.37170302860723 113.84396407125838 191.01171882188567 0.0000000000000000 0.0000000000000000 0.0000000000000000 0.0000000000000000 3.3804470993585052 3.7938641060534390 1.4142448216041432 1.1890209530806775 1325.7236153408483 1325.7197889059210 1.1892224891970145 
-43.196884199867938 -108.22754188916322 99.569341657886994 -43.196884199867938 -108.22754188916318 99.569341657886994 -1.1845468418615215 -8.3331482410142868e-06 8.0659311043472751e-07 1.1222215073740254e-05 0.0000000000000000 1.3925563107469043e-06 -1.3434772592616149e-06 3.3112565379560596e-05 0.0027801270051757252 5.0556809609612498e-10 -1.2390613643585091e-09 -5.3718450696940434e-10 0.0000000000000000 -41.690910404717421 -107.74885629568415 110.97670241767709 270.34727434602189 0.0000000000000000 0.0000000000000000 0.0000000000000000 0.0000000000000000 3.3796861703591068 3.7909986980467059 1.4120649673299892 1.1880098764493556 1331.0690790264487 1331.0695522390372 1.1883031835676292 