# For a description of the Tecplot format see the Tecplot User's guide.
#
Variables=x,y,z,s_u,s_v,s_w,s_p,mono_f_vel_u,mono_f_vel_v,mono_f_vel_w,const,u_nu,v_nu,w_nu,p_nu,x_nu,y_nu,z_nu,const,u_ref,v_ref,w_ref,vol_ref,x_ref,y_ref,z_ref,const,I1,I2,I3,J,p1,p2,p3
Zone f=fepoint, n=356, e=1130, et=brick, c=black
-66.2715 -97.6011 89.2262 -66.271487219741161 -97.601075339233986 89.226234136929776 -206.11672505443843 -3.8048624554835291e-05 3.9327628107058232e-05 0.00029227888635740602 4.3601451937997184e-19 1.1474113306708668e-07 8.1236485871549746e-09 4.8589383260022601e-05 0.0034391139223050042 1.0159157889753009e-09 -1.1573622757090831e-09 -3.1705888484047759e-09 -8.5646648399092361e-20 -65.754724465942431 -97.517594547729473 92.373562431030237 2074.8615187338191 0.0000000000000000 0.0000000000000000 0.0000000000000000 0.0000000000000000 3.0819132333228665 3.1653618282540505 1.0834568787697672 1.0409042452268740 732.98939225988227 679.47536659014816 1.0408922246208479 
-76.331571091660535 -130.81339404996848 75.351147008346757 -76.331571091660550 -130.81339404996851 75.351147008346757 -145.84414239863429 -0.00015789944752437967 -5.6275252119737250e-05 4.5608727035122143e-05 -59.603403045990405 1.2977396843250053e-07 2.4638726003889388e-08 5.4548588443559247e-05 0.0028054286671955857 4.2465810775769960e-09 1.7428388494917316e-09 -1.8874624677593878e-09 -0.00080279485113976491 -75.747104543999981 -130.56019973999997 78.884476808000016 2128.8259272129790 0.0000000000000000 0.0000000000000000 0.0000000000000000 0.0000000000000000 3.0818961770787761 3.1653354234459670 1.0834475662311918 1.0409042452268746 636.90743800995199 635.16981582025551 1.0408875497213972 
-63.923233884845125 -122.00279067008864 67.488564989092296 -63.923233884845118 -122.00279067008864 67.488564989092296 -70.903069860418341 0.00011336206138969429 -2.9855601936260380e-06 6.5325217557775991e-06 54.811867836876374 1.1123212576014119e-07 2.0257584110172641e-08 5.7925485404730637e-05 0.0015464326123983930 -3.1305559572769762e-09 6.5928017856514425e-11 -2.4317940184224646e-10 -0.0021168141775160802 -63.422274742800013 -121.79461816400000 71.240629883439979 1237.7701333319521 0.0000000000000000 0.0000000000000000 0.0000000000000000 0.0000000000000000 3.0821193002983867 3.1657600109262818 1.0836487162185275 1.0409042452268757 448.81586236750860 456.66209444402011 1.0409846003412850 
-56.604019367883303 -132.34054517445429 73.043899301574172 -56.604019367883318 -132.34054517445429 73.043899301574157 -105.19759793113204 0.00017260368336931658 -2.9277236298677268e-05 -6.4433084710750145e-05 -145.50270042641378 1.0029498190289310e-07 2.5398127101450285e-08 5.5539527262560284e-05 0.0020051126934312619 -4.1969307926189737e-09 1.6376291493908954e-09 1.9451003123009519e-09 0.0067767135739461911 -56.152318124399997 -132.07954718800002 76.641416164000006 2090.5778096190215 0.0000000000000000 0.0000000000000000 0.0000000000000000 0.0000000000000000 3.0814233186511859 3.1643874904075351 1.0829725750257035 1.0409042452268740 594.16102191627192 623.50067947323805 1.0406594580830288 
-123.80180423626734 -110.53698607031012 85.969495437638358 -123.80180423626734 -110.53698607031012 85.969495437638344 -342.42256719892839 -1.1317517028829879e-05 -8.0683374244057903e-06 -3.3950030950820512e-05 -326.73011605055433 2.0070898351653982e-07 1.4556126803899616e-08 4.9988118558275119e-05 0.0059571869334769448 9.1529187126524779e-11 1.6681487234686026e-11 1.0833527344054715e-09 0.0061537605314038535 -122.89786571200003 -110.38740333199999 89.207425400000020 2092.2379289329847 0.0000000000000000 0.0000000000000000 0.0000000000000000 0.0000000000000000 3.0820548082757400 3.1656417210446657 1.0835950777070325 1.0409042452268746 1047.7332529099760 1038.8140952810857 1.0409588383183175 
-123.67288649518191 -128.74674891029608 90.366329851805318 -123.67288649518193 -128.74674891029605 90.366329851805332 -338.88764403933425 -7.7052798477766081e-06 -6.7498076962993714e-05 -0.00010640045728220671 -469.19225243849627 2.0051634694318032e-07 2.3611059829509173e-08 4.8099724042849346e-05 0.0058346694199995566 6.7281422360409339e-12 1.5900885767664940e-09 9.5932478314484799e-10 0.0066171401267330447 -122.76981557999994 -128.50411506799998 93.481940963999989 2295.0048277193882 0.0000000000000000 0.0000000000000000 0.0000000000000000 0.0000000000000000 3.0820519992279354 3.1656263363846673 1.0835823520537937 1.0409042452268746 1129.4965093710728 1114.6236310027887 1.0409526308749795 
-87.996918858984799 -119.74983054632838 105.31188889687098 -87.996918858984813 -119.74983054632834 105.31188889687105 -182.99999282592808 8.5063950576571811e-07 0.00014760678943322227 -0.00015559028030398084 -1.9842683293720108e-19 1.4720556437697316e-07 1.9137285922621317e-08 4.1680762332241272e-05 0.0033162644802830028 5.5196831304601533e-12 -3.4963558573510210e-09 1.5943703514323675e-09 3.7938826087953097e-20 -87.333945182495114 -119.55317056945796 108.01171823852533 1853.2119812635015 0.0000000000000000 0.0000000000000000 0.0000000000000000 0.0000000000000000 3.0817725908661657 3.1650915858458588 1.0833275893996583 1.0409042452268742 757.59203336032681 792.51498571287186 1.0408304209513333 
-122.79396920366113 -119.14284967877428 104.30995454183203 -122.79396920366115 -119.14284967877428 104.30995454183201 -186.15171681622866 -2.1049647483049193e-05 4.4525803613193749e-05 -0.00023047528710843523 -178.51494243714140 1.9920297131270634e-07 1.8835463355681984e-08 4.2111082693807596e-05 0.0033667633115544420 -8.1613168991532104e-11 -1.2691302798043401e-09 2.2004983137329339e-09 0.0025575235801957564 -121.89681335200000 -118.94929134799999 107.03765745040002 1571.7251237143605 0.0000000000000000 0.0000000000000000 0.0000000000000000 0.0000000000000000 3.0818992201046247 3.1653196977151343 1.0834284090153039 1.0409042452268742 740.38475814683488 750.18768440061115 1.0408786013360720 
-44.546055580497523 -164.04734096051718 121.39753842897767 -44.546055580497523 -164.04734096051712 121.39753842897770 -53.771996839351999 5.5702306012627892e-05 -8.2620111748024434e-06 -1.0654311418961748e-05 0.0000000000000000 8.2276701590666690e-08 4.1164575581564839e-08 3.4772143661321309e-05 0.0013807902301651894 -2.4480465939992052e-09 -5.5750176642813135e-10 4.8874424995037384e-10 0.0000000000000000 -44.175503749389662 -163.62432261291502 123.64986896362305 1288.7765825848380 0.0000000000000000 0.0000000000000000 0.0000000000000000 0.0000000000000000 3.0834986322403357 3.1686713623173670 1.0851825287757744 1.0418060305655721 529.85538070317375 631.78674921770346 1.0417210992857020 
-15.654340063986250 -144.18629772791527 134.16586937456469 -15.654340063986247 -144.18629772791525 134.16586937456466 -66.703046122603581 8.1119604865547308e-06 -5.0453006829943538e-05 -2.1427091622751507e-05 26.970442207088261 3.9103661420014646e-08 3.1288516499916603e-08 2.9288278709849180e-05 0.0014395479905098172 -2.8090830071796619e-10 1.4352841634789109e-09 1.4981220669246892e-09 -0.00012740005046405040 -15.478227839600008 -143.86476845600004 136.06298808800005 1207.7015194609139 0.0000000000000000 0.0000000000000000 0.0000000000000000 0.0000000000000000 3.0814997151488677 3.1645098598488439 1.0830180383592098 1.0410634691298455 577.03418537460948 579.22287756110848 1.0406812125351996 
-44.546055580497523 -164.04734096051718 137.48318796108433 -44.546055580497523 -164.04734096051720 137.48318796108435 -87.712714226185369 2.5222442379899738e-05 -2.5987912468240960e-05 9.9339619602684944e-06 0.0000000000000000 8.2276701590666690e-08 4.1164575581564839e-08 2.7863524962867814e-05 0.0017576708734257864 -7.1500092746203681e-10 1.1358427938658616e-09 -3.8602740089300073e-10 0.0000000000000000 -44.175503749389669 -163.62432261291511 139.28801968872074 2260.0113226803110 0.0000000000000000 0.0000000000000000 0.0000000000000000 0.0000000000000000 3.0816141590227484 3.1647482391416024 1.0831421219173549 1.0411913329525668 616.80748755361253 604.82060454049133 1.0407415340780728 
-5.9929650556017720 -161.87062472135105 128.36695277214747 -5.9929650556017720 -161.87062472135102 128.36695277214747 -163.29683926805276 4.6681833794425812e-05 -1.6031473241081125e-05 4.1595096232942287e-05 -241.34085311838911 2.4666618136937050e-08 4.0082186958390054e-08 3.1778852886965574e-05 0.0030998815115655548 -9.6501568823130202e-10 8.3806805475712695e-10 -6.9906119181078500e-10 0.0032225414068064724 -5.8818733370400009 -161.45872929999999 130.42539591680000 1840.5999298976626 0.0000000000000000 0.0000000000000000 0.0000000000000000 0.0000000000000000 3.0817185484826046 3.1649485103204169 1.0832379380702279 1.0409042452268726 766.44257244495213 751.60871416288001 1.0407872019109201 
-9.9181761775792712 -107.24171360189348 182.43480839832924 -9.9181761775792712 -107.24171360189348 182.43480839832927 -131.63614383970074 9.6482911327255524e-06 1.8367100063107525e-05 -2.4341858825579927e-05 -136.10442505518628 3.0532082209711049e-08 1.2917525105127226e-08 8.5572729187077812e-06 0.0025348747432798338 9.4837866856231792e-11 -3.1993284516213811e-10 1.8925744122864628e-10 0.0024360520458928214 -9.7806680107999995 -107.10896956400003 182.98909712000000 1021.2952016557671 0.0000000000000000 0.0000000000000000 0.0000000000000000 0.0000000000000000 3.0819707267723642 3.1654695424443919 1.0835069477370796 1.0409042452268742 683.94344877549827 680.87821475751355 1.0409164035492451 
-17.756023157601259 -108.77782798826154 193.13737070082590 -17.756023157601255 -108.77782798826152 193.13737070082587 -144.92964798710847 -4.6912092396570017e-05 3.5407660279891623e-05 2.9846504043351421e-05 -157.69793452454090 4.2244218803610956e-08 1.3681376309637727e-08 3.9606340411779684e-06 0.0026797029384083119 3.9171874309627314e-10 -8.3093401876031896e-10 -3.3964746215898231e-10 0.0032939236329171942 -17.565766725200003 -108.63723447200002 193.39391677600000 1230.2822850381203 0.0000000000000000 0.0000000000000000 0.0000000000000000 0.0000000000000000 3.0819657093454507 3.1654583172719670 1.0835007253165079 1.0409042452268733 722.08066884843618 719.54213379576674 1.0409133865939029 
-44.546055580497523 -119.74983054632838 169.65448702529773 -44.546055580497523 -119.74983054632851 169.65448702529784 -148.84867086668956 -2.6960888672675767e-06 2.0006245300408164e-05 4.9044901016865996e-05 0.0000000000000000 8.2276701590666690e-08 1.9137285922621317e-08 1.4046287620139708e-05 0.0027108127266119706 1.9051735931041489e-11 -6.5035356393856948e-10 -5.8228086208647126e-10 0.0000000000000000 -44.175503749389591 -119.55317056945772 170.56432113891603 1872.3464537223574 0.0000000000000000 0.0000000000000000 0.0000000000000000 0.0000000000000000 3.0818636133105657 3.1652566624701977 1.0834012441331564 1.0409042452268733 710.79456729191065 719.43536779686815 1.0408657608556806 
-9.4663070012520834 -124.61864788783048 188.47847285454122 -9.4663070012520816 -124.61864788783046 188.47847285454122 -141.16697393102157 1.4685881600434408e-05 -9.5868070812885555e-05 -3.2296434504628319e-05 -144.17313992988952 2.9856851366250048e-08 2.1558338725302665e-08 5.9615820608982517e-06 0.0025662037024263770 2.2223550116621766e-10 1.9168458909762073e-09 2.2640414580002442e-10 0.0022114199834600071 -9.3318398883999993 -124.39710846400000 188.86462832000004 1016.3527334425750 0.0000000000000000 0.0000000000000000 0.0000000000000000 0.0000000000000000 3.0819673554601783 3.1654611012454721 1.0835018554345055 1.0409042452268733 729.90631232152361 728.78279885377378 1.0409139084351251 
-44.546055580497523 -164.04734096051718 105.31188889687098 -44.546055580497523 -164.04734096051712 105.31188889687104 -113.38605502936201 -2.6510261904679674e-05 -0.00016081920354682480 -6.6242314155822864e-05 2.0684408212072767e-18 8.2276701590666690e-08 4.1164575581564839e-08 4.1680762332241272e-05 0.0022751079984584957 8.5278174038850096e-11 4.5235060869029899e-09 1.1032471386654173e-09 -4.0567106610397244e-19 -44.175503749389662 -163.62432261291499 108.01171823852535 1450.3671205666894 0.0000000000000000 0.0000000000000000 0.0000000000000000 0.0000000000000000 3.0833250188933956 3.1682434877602637 1.0849271705462653 1.0416360448711997 546.22045590110599 700.25826317713245 1.0415970036666442 
-61.639242781061988 -161.36415324994118 82.673149280456684 -61.639242781061981 -161.36415324994127 82.673149280456698 -329.60932662120939 -7.1357277712160737e-05 -0.00025855978274350527 -5.5590330909060896e-05 -146.22980712840973 1.0781914591695418e-07 3.9830318321332214e-08 5.1403864850918510e-05 0.0056140947131415563 1.3337473818250185e-09 6.4628963041416236e-09 2.2049230824170506e-09 0.0056406364723736594 -61.153654769600031 -160.95484587600001 86.002782780800032 1645.6757988676138 0.0000000000000000 0.0000000000000000 0.0000000000000000 0.0000000000000000 3.0769902246920400 3.1553989699512988 1.0784163065061632 1.0397903785912010 1054.5495184990907 1036.6071521099886 1.0384689007620254 
-44.603637864211272 -168.44711148954798 79.868738223774272 -44.603637864211272 -168.44711148954792 79.868738223774258 -494.94439607266543 9.7940891997773687e-05 -0.00040557766208323872 -6.7939385644778103e-05 -368.79029913623714 8.2362749814768334e-08 4.3352402057106332e-08 5.2608330147307918e-05 0.0082989645626631095 -1.6937737604513524e-09 9.7553575477072052e-09 2.7623420590012521e-09 0.010123200978759397 -44.232698507600013 -168.00161050399998 83.276389748800028 1737.4139093181343 0.0000000000000000 0.0000000000000000 0.0000000000000000 0.0000000000000000 3.0823654176702742 3.1662629174441128 1.0839056294300347 1.0409042452268740 1335.3359551783108 1302.9019697184162 1.0411083194244013 
-44.546055580497523 -186.19609616761156 105.31188889687098 -44.546055580497523 -186.19609616761142 105.31188889687105 -437.64770641922848 9.6988823258322672e-06 -0.00013102989532343731 -0.00033364074165091864 -1.0014778843031818e-19 8.2276701590666677e-08 5.2178213250098082e-08 4.1680762332241272e-05 0.0075170711198414633 -7.6480661979996380e-11 3.9017604211402869e-09 2.7355475789425725e-09 1.9760577601178513e-20 -44.175503749389676 -185.65989863464350 108.01171823852533 1616.4576808433910 0.0000000000000000 0.0000000000000000 0.0000000000000000 0.0000000000000000 3.0807082508326324 3.1629014797572630 1.0822009873062655 1.0406537766465791 1258.0904678775132 1256.9330822161992 1.0402886887957288 
-87.996918858984799 -141.89858575342279 137.48318796108433 -87.996918858984813 -141.89858575342271 137.48318796108430 -141.14775705650788 -9.0862275208595583e-06 -1.7824899479884551e-05 2.1712642933358361e-06 0.0000000000000000 1.4720556437697319e-07 3.0150937913031584e-08 2.7863524962867817e-05 0.0027915179829426529 2.9160210575852434e-10 5.2126842140883178e-10 4.1169425218442537e-11 0.0000000000000000 -87.333945182495100 -141.58874659118649 139.28801968872074 1877.7986991733408 0.0000000000000000 0.0000000000000000 0.0000000000000000 0.0000000000000000 3.0828716180159681 3.1673075108856339 1.0844440324190039 1.0412369777225370 709.24745696151638 711.28645107023510 1.0413672030122667 
-66.271487219741161 -164.04734096051718 137.48318796108433 -66.271487219741161 -164.04734096051723 137.48318796108438 -118.26719108801994 -3.8189619962917202e-05 6.7059091240512337e-06 2.7123205856816590e-05 1.4154018625415569e-19 1.1474113306708664e-07 4.1164575581564826e-08 2.7863524962867821e-05 0.0025291161113773645 1.3506829742219318e-09 2.3929566773149717e-10 2.7102654121899096e-11 -2.8228697728299356e-20 -65.754724465942374 -163.62432261291517 139.28801968872077 2018.1238718776010 0.0000000000000000 0.0000000000000000 0.0000000000000000 0.0000000000000000 3.0815100659576338 3.1645427981403493 1.0830408225234007 1.0413683862424408 665.82704221284087 669.83594558677567 1.0406928317035498 
-87.996918858984799 -164.04734096051718 121.39753842897767 -87.996918858984813 -164.04734096051715 121.39753842897777 -184.35123402495657 -6.8087883628641761e-05 -3.6953773524755347e-05 5.3187373188482184e-06 0.0000000000000000 1.4720556437697319e-07 4.1164575581564826e-08 3.4772143661321302e-05 0.0039733948543915877 8.4239090741319854e-10 7.2476835014063721e-10 8.8152730830333879e-10 0.0000000000000000 -87.333945182495114 -163.62432261291505 123.64986896362312 1549.0027140339625 0.0000000000000000 0.0000000000000000 0.0000000000000000 0.0000000000000000 3.0830535417866636 3.1676494765982866 1.0846042036148882 1.0412473677109855 768.36726165621474 874.11440195419323 1.0414424718457773 
-87.996918858984799 -141.89858575342279 121.39753842897767 -87.996918858984813 -141.89858575342271 121.39753842897778 -113.42663136898867 -6.0130451238463501e-05 -2.9216449591082997e-05 7.5411455065674311e-05 0.0000000000000000 1.4720556437697316e-07 3.0150937913031584e-08 3.4772143661321309e-05 0.0024027312022204994 1.5024253045735435e-09 1.3277209298203724e-09 -9.3971695492599517e-10 0.0000000000000000 -87.333945182495086 -141.58874659118649 123.64986896362313 1389.1126189879024 0.0000000000000000 0.0000000000000000 0.0000000000000000 0.0000000000000000 3.0817117973966499 3.1649710151323558 1.0832669009734583 1.0412453498265968 614.32328797947287 715.13618316211466 1.0408023423804664 
-45.575111245365598 -110.48301779876644 44.454248660281571 -45.575111245365591 -110.48301779876645 44.454248660281571 -579.06837484869982 0.00011859757928630862 4.3663821363719530e-05 -0.00014513616445685056 -582.45990084405810 8.3814430701378839e-08 1.4529294045662054e-08 6.7818483989512401e-05 0.010378563537035475 -1.5432790848936926e-09 5.3187111037499264e-10 3.3007403592243108e-09 0.010602144467981457 -45.197633928000002 -110.33371083599998 48.847122559999995 1069.0094105005942 0.0000000000000000 0.0000000000000000 0.0000000000000000 0.0000000000000000 3.0819532617095620 3.1654338019961226 1.0834886678930233 1.0409042452268746 1519.9296488256591 1521.0190355048592 1.0409076158295354 
-57.581915499383165 -98.921485562085465 41.758157612356328 -57.581915499383129 -98.921485562085451 41.758157612356321 -592.38406617871487 1.0711459503839924e-05 5.1892509506338301e-05 -0.00011562886934542852 -524.31628986395071 1.0175625744790473e-07 8.7802257131563977e-09 6.8976426971012472e-05 0.010868106942836613 2.7917270382392534e-10 -3.0299062642328103e-10 2.0349543636832163e-09 0.011848075516085297 -57.123633070400032 -98.831257531200038 46.226036100800002 1475.5774262919704 0.0000000000000000 0.0000000000000000 0.0000000000000000 0.0000000000000000 3.0819468822827925 3.1654208957900396 1.0834821415540796 1.0409042452268744 1487.7033912621407 1487.3530000105241 1.0409044824141915 
-60.618358644727813 -105.71192067390551 53.108796718258951 -60.618358644727799 -105.71192067390551 53.108796718258958 -394.34505351491947 1.8085179667226616e-05 0.00024337422575802694 -0.00024456214780566607 19.971240373636533 1.0629362920400177e-07 1.2156824158449098e-08 6.4101445872211116e-05 0.0072067027086670215 1.1408300744804351e-09 -4.1357159945438450e-09 6.9333466947540773e-09 0.012290751830938475 -60.139641125599979 -105.58699381199996 57.260903223199996 1724.6135661994952 0.0000000000000000 0.0000000000000000 0.0000000000000000 0.0000000000000000 3.0819314766716492 3.1653901734951693 1.0834668331589030 1.0409042452268749 1152.5250791586477 1149.2184739783006 1.0408971288732494 
-19.608746010517095 -88.151248954394816 53.559508819474146 -19.608746010517102 -88.151248954394788 53.559508819474139 -479.49921610825731 -6.8698632660086131e-06 -7.0389591224898255e-05 -0.00024447862960127927 -492.14768124645792 4.5012750582440475e-08 3.4246513958002822e-09 6.3907869731316693e-05 0.0086846523005669630 -5.7504055990323540e-10 5.8845117168817111e-10 2.0479169676489596e-09 0.0092373115131069751 -19.406020858399991 -88.116056368799974 57.699076624800000 1439.6451283969650 0.0000000000000000 0.0000000000000000 0.0000000000000000 0.0000000000000000 3.0819324029471269 3.1653915012176865 1.0834672254854358 1.0409042452268744 1332.9734155884576 1332.5515598413660 1.0408973215912307 
-59.246018647987285 -179.08820164603409 75.218152129173703 -59.246018647987285 -179.08820164603409 75.218152129173703 -810.22997478904801 -1.4039783656357990e-05 -6.5068372065958820e-05 -0.00010183347649977650 -978.96395335381044 1.0424293442334864e-07 4.8643757633026752e-08 5.4605708358579370e-05 0.012651877863053657 -1.4115115311374675e-10 7.5082204741177537e-10 3.3351279681831289e-09 0.018453838410564853 -58.776536899199989 -178.58832514800000 78.755181813599989 1584.4809985467919 0.0000000000000000 0.0000000000000000 0.0000000000000000 0.0000000000000000 3.0830630823796574 3.1676932489468403 1.0846386328469406 1.0409042452268737 2000.6224732382664 2007.2809089847860 1.0414607203850272 
-75.039145286899398 -185.47532771320280 68.501892915144452 -75.039145286899398 -185.47532771320286 68.501892915144467 -768.65566180602184 0.00021580037123560515 -0.00020308329640224696 -8.3612412217782005e-06 -746.68271232360155 1.2784269073917720e-07 5.1819812607600824e-08 5.7490271635707302e-05 0.012135824026224110 -5.3547775222067985e-09 4.1482772707863507e-09 1.5377542075461534e-10 0.011005277811900249 -74.463376691600018 -184.94281327599995 72.225767276240006 1182.3928641350060 0.0000000000000000 0.0000000000000000 0.0000000000000000 0.0000000000000000 3.0822204366046004 3.1659655271961609 1.0837531372052225 1.0409042452268742 1790.8849679474190 1791.4143317391174 1.0410346007366744 
-70.280516599335954 -212.25783726775111 83.279502871987503 -70.280516599335940 -212.25783726775109 83.279502871987489 -828.39150458712732 1.9764205579390472e-05 2.3340247231063065e-05 -0.00011698169984221625 -866.58369581246018 1.2073184538219373e-07 6.5137612581533944e-08 5.1143442301615494e-05 0.012697715509783049 -4.2581277313972075e-10 -6.2055086524956460e-11 1.2933793407073057e-09 0.013526007183916692 -69.736773305200003 -211.58846536000007 86.592267764799999 1391.6778601551057 0.0000000000000000 0.0000000000000000 0.0000000000000000 0.0000000000000000 3.0817448450642213 3.1650223435814264 1.0832857341567179 1.0409042452268737 2019.6695621542128 2018.8190904190308 1.0408102865061510 
-87.473293805982379 -207.92112811874168 87.101695802450564 -87.473293805982379 -207.92112811874173 87.101695802450564 -678.82611400423491 0.00020580694256982360 -0.00011007141618649644 -7.1640667338096213e-05 -757.42966664841140 1.4642310738888220e-07 6.2981160231512234e-08 4.9501850305055939e-05 0.010643407576441470 -4.5660848247094490e-09 2.6249978234061579e-09 1.6516733924693699e-10 0.011613390467035526 -86.813844096400004 -207.27391660800001 90.308128229600001 1955.0875990986240 0.0000000000000000 0.0000000000000000 0.0000000000000000 0.0000000000000000 3.0827722173415801 3.1671018550844541 1.0843380291312612 1.0409042452268735 1710.3964527665578 1715.8477753464515 1.0413162798105431 
-74.948773302570643 -213.25983559606192 97.746795327022269 -74.948773302570643 -213.25983559606192 97.746795327022269 -692.11755203690234 -7.0552577065481308e-05 3.2107652451142975e-05 0.00011624894822988593 -807.53413687059265 1.2770764087899344e-07 6.5635857360302197e-08 4.4929891103606672e-05 0.010526452763152550 8.9412841169021334e-10 -5.2995917287343026e-10 -4.9878316133340700e-10 0.011803401548719790 -74.373612905599998 -212.58534351999998 100.65708370800000 988.41240310934302 0.0000000000000000 0.0000000000000000 0.0000000000000000 0.0000000000000000 3.0821827594592013 3.1659169305577981 1.0837425832297112 1.0409042452268717 1925.2200896331440 1925.6731396367261 1.0410302405738183 
-66.271487219741161 -186.19609616761156 105.31188889687098 -66.271487219741161 -186.19609616761142 105.31188889687105 -436.31577097713523 1.7988413540350656e-05 -0.00018172192325996406 -0.00018840575032083562 -1.1987125182780123e-20 1.1474113306708664e-07 5.2178213250098069e-08 4.1680762332241272e-05 0.0073177005962272550 -5.7874586738437270e-10 4.8107946109552800e-09 1.3983877623797044e-09 -2.5966888157619425e-21 -65.754724465942374 -185.65989863464350 108.01171823852535 1808.0980320372519 0.0000000000000000 0.0000000000000000 0.0000000000000000 0.0000000000000000 3.0805590177148749 3.1625465188788824 1.0819945540902722 1.0405442229060202 1213.1135897864510 1202.1033782512623 1.0401878921644732 
-84.098092225986520 -209.01341951675059 106.35405616457750 -84.098092225986520 -209.01341951675062 106.35405616457750 -494.78942742157307 0.00027345720063186096 -0.00018671356300742107 -0.00036510885237129925 -483.01148400203954 1.4137951651060909e-07 6.3524290883076859e-08 4.1233162364484599e-05 0.0079953525938515693 -6.2925133459820050e-09 3.1408744862817182e-09 2.7637593432298962e-09 0.0074271279942519633 -83.461357431600007 -208.36062644399999 109.02489266960001 1287.0831768928649 0.0000000000000000 0.0000000000000000 0.0000000000000000 0.0000000000000000 3.0826414079104221 3.1668457571307274 1.0842128301232796 1.0409042452268733 1373.2764566560038 1390.1730268707445 1.0412556188313982 
-41.911663293234255 -130.29682711517546 61.845603708999917 -41.911663293234255 -130.29682711517540 61.845603708999910 -328.13940337959139 9.1517141919630952e-05 -1.7312716481279599e-05 -8.7724633120019263e-05 -367.40004183122676 7.8340116976827203e-08 2.4381868468648094e-08 6.0349078411903185e-05 0.0059457887768881602 -1.9033937801065014e-09 1.2480177898287110e-09 2.2956852380622478e-09 0.0080020151562052982 -41.558840772800004 -130.04627243999997 65.754654395919971 2180.9238908936368 0.0000000000000000 0.0000000000000000 0.0000000000000000 0.0000000000000000 3.0820431184150201 3.1656150124419891 1.0835800169146028 1.0409042452268744 1084.5998550617603 1084.5196329433968 1.0409514476217068 
-23.013738416683388 -134.71826267650343 51.715115360647381 -23.013738416683392 -134.71826267650343 51.715115360647374 -520.35476952370857 1.9995476601781306e-05 2.1855145784181619e-05 -2.4377171490828612e-05 -543.19620385046312 5.0100847748257848e-08 2.6580457890279519e-08 6.4700017477825611e-05 0.0092987065235886467 -2.2352029388964860e-10 -2.2703472368333714e-10 3.5242453254276517e-10 0.0091132171001953744 -22.788097858800000 -134.44511465599999 55.905993737599999 935.86986824075086 0.0000000000000000 0.0000000000000000 0.0000000000000000 0.0000000000000000 3.0818837255523697 3.1652925295401277 1.0834169195252217 1.0409042452268740 1387.9848572609842 1387.1099193113951 1.0408732037339556 
-11.171713802294411 -103.71717032954129 58.095257751956673 -11.171713802294413 -103.71717032954126 58.095257751956666 -480.33673833208508 -1.0979832627272525e-06 -8.1355147235687831e-05 -0.00017087942392766655 -431.27656813978047 3.2405249775213640e-08 1.1164919044848178e-08 6.1959812874157194e-05 0.0085870300283125631 -6.6821453146465751e-10 1.0686083926438675e-09 1.4307166424835038e-09 0.0080617750606865862 -11.025769398400001 -103.60243655599999 62.108642139439993 1284.9349949311236 0.0000000000000000 0.0000000000000000 0.0000000000000000 0.0000000000000000 3.0819160074345580 3.1653586300856329 1.0834507535118998 1.0409042452268749 1367.1683956914533 1367.0870372709835 1.0408894199159537 
-29.261945431502081 -141.06991309664338 66.285719531524251 -29.261945431502081 -141.06991309664338 66.285719531524251 -373.29509272615775 4.6967101113739092e-05 4.4302227426540454e-05 -0.00012296086413247164 -364.48247616191662 5.9437578053822535e-08 2.9738863871475729e-08 5.8442094982957826e-05 0.0066184744877130488 -7.5702167052542992e-10 1.9998937067841994e-10 2.6552904919799550e-09 0.0096839487877218230 -28.994254794799993 -140.76430841599998 70.071247290159988 2176.9829965296321 0.0000000000000000 0.0000000000000000 0.0000000000000000 0.0000000000000000 3.0821221650296087 3.1657784093867116 1.0836644200907426 1.0409042452268737 1152.2230436119319 1156.9312546545541 1.0409918765613941 
-104.17826590029048 -194.63323390348867 90.940786325372812 -104.17826590029048 -194.63323390348867 90.940786325372798 -459.30271367351702 1.6306070372603143e-05 -5.1627473117160296e-05 -0.00016417090911016965 -588.89622989088014 1.7138542393602132e-07 5.6373655576980042e-08 4.7853000972430948e-05 0.0077935285711619876 -6.3653827637266138e-10 8.3624591479495132e-10 1.8736434088173917e-09 0.0078275736488410460 -103.40639267600000 -194.05392295999994 94.040416199999996 2662.2783756828549 0.0000000000000000 0.0000000000000000 0.0000000000000000 0.0000000000000000 3.0820729281513484 3.1656898909038631 1.0836252852866266 1.0409042452268737 1302.8334909503430 1298.1026111702208 1.0409735237124982 
-83.138779498944629 -162.71760579416147 74.237584701721502 -83.138779498944601 -162.71760579416147 74.237584701721502 -525.34112939224917 -6.2924145438142279e-05 -3.7653337253611634e-05 -7.7929755131447679e-05 -625.16422062958554 1.3994601352762539e-07 4.0503353726517588e-08 5.5026851842221447e-05 0.0089789725125370094 1.2305921070796894e-09 5.5427654171394725e-10 2.7371268531305509e-09 0.013109226964306107 -82.508500824799995 -162.30138233600007 77.801893530400037 2229.3857910936085 0.0000000000000000 0.0000000000000000 0.0000000000000000 0.0000000000000000 3.0827940316712499 3.1671449164144714 1.0843592424132955 1.0409042452268737 1411.3945568069832 1409.9426649677016 1.0413263723998343 
-28.251988911827961 -125.28701934810202 125.41895081200434 -28.251988911827969 -125.28701934810206 125.41895081200435 -38.214631602602061 8.6764328725915020e-06 -7.7563795705214269e-06 3.6776359304847371e-05 -7.4457161116589694e-20 5.7928394692208229e-08 2.1890702639471012e-08 3.3044988978936374e-05 0.00080516659500610207 -1.0290811241240438e-10 2.3136968433976981e-10 -6.3055951289499683e-10 1.3708183747070471e-20 -27.991095225219734 -125.06206457489009 127.55940664489751 1124.7619503421174 0.0000000000000000 0.0000000000000000 0.0000000000000000 0.0000000000000000 3.0809143585148284 3.1632755829298169 1.0823686304910207 1.0410021916270218 458.59877203942784 461.43853779664454 1.0403701286919189 