# For a description of the Tecplot format see the Tecplot User's guide.
#
Variables=x,y,z,s_u,s_v,s_w,s_p,mono_f_vel_u,mono_f_vel_v,mono_f_vel_w,const,u_nu,v_nu,w_nu,p_nu,x_nu,y_nu,z_nu,const,u_ref,v_ref,w_ref,vol_ref,x_ref,y_ref,z_ref,const,I1,I2,I3,J,p1,p2,p3
Zone f=fepoint, n=3174, e=16683, et=brick, c=black
-24.9100 -154.171 112.172 -24.910011063344260 -154.17095810120614 112.17227954867478 -4.7819954521463792 -3.5344530133182159e-07 -1.4572318811575688e-06 -1.5987179810358076e-06 -4.6269960629264668 2.1449242078655506e-10 1.9323645114588397e-10 3.8551099035277758e-08 1.5444289099013798e-05 7.7351345484364178e-14 -6.5701572448496962e-13 -5.7177110529912865e-13 1.4487703018587159e-05 -24.903554063199991 -154.16086777200002 112.24023381839994 89.724962256112903 0.0000000000000000 0.0000000000000000 0.0000000000000000 0.0000000000000000 3.0021953260460759 3.0043916296041138 1.0021963035954788 1.0011184300248641 16.532078890564868 16.532078888320974 1.0010975440358965 
-37.447573918312507 -155.11812920355209 114.86603105697071 -37.447573918312507 -155.11812920355212 114.86603105697075 -4.0908282552139212 1.1295031659372895e-06 -1.1994445833971692e-06 -8.2910119755661249e-07 0.0000000000000000 2.2542373044371739e-10 4.6531076019889929e-10 4.0023637542512150e-08 1.7349230485729995e-05 3.0251615684871067e-12 -3.9652267510797714e-12 3.0942461059014456e-12 0.0000000000000000 -37.438273663334591 -155.10473791080037 114.93291110338620 89.036758072416930 0.0000000000000000 0.0000000000000000 0.0000000000000000 0.0000000000000000 3.0027280253843385 3.0054581123733466 1.0027300874028464 1.0013100959297363 17.341462016338895 17.341462022976319 1.0013641203423846 
-31.550286943319339 -147.88829393960256 119.79914401985189 -31.550286943319325 -147.88829393960256 119.79914401985194 -3.6187886256123027 3.8036320045931258e-07 -8.6217346579607425e-07 -2.9964056216305287e-07 0.0000000000000000 2.5470006442471216e-10 1.7659864889885135e-10 3.5290935368470500e-08 1.6324006067193272e-05 6.9966060922837842e-13 9.3933572830558747e-13 -1.4655802604754951e-12 0.0000000000000000 -31.542619574254449 -147.87907313389167 119.86135157363466 98.260374494724786 0.0000000000000000 0.0000000000000000 0.0000000000000000 0.0000000000000000 3.0024171497642258 3.0048357643998851 1.0024186148392262 1.0012279442191931 15.651924826301684 15.651924826126804 1.0012085676367724 
-28.654795365513682 -142.97592251699959 112.05647941590267 -28.654795365513682 -142.97592251699959 112.05647941590267 -3.6038636489338249 3.9879702501509403e-07 -1.1018340854946701e-06 -7.3183331126528230e-07 0.0000000000000000 2.3716743456289607e-10 1.6357360604901674e-10 3.8600599494564847e-08 1.6571451223598004e-05 5.9733852375557074e-12 9.6155046073113736e-14 9.2626093388544132e-13 0.0000000000000000 -28.647655777685479 -142.96738158566356 112.12452093910819 112.69127588814607 0.0000000000000000 0.0000000000000000 0.0000000000000000 0.0000000000000000 3.0024996521289991 3.0050009645915492 1.0025013127737774 1.0012321324767466 15.827547684758388 15.827547688022490 1.0012498743881795 
-24.268200209249652 -200.44865487488235 73.629550906395622 -24.268200209249649 -200.44865487488235 73.629550906395608 -12.345826553458743 5.3639114578296040e-08 1.3542949459506227e-09 3.8799390813631229e-08 -12.402929784333084 2.1060682147897025e-10 3.1591051302681800e-10 5.5026506379229914e-08 1.6754606316882632e-05 -1.3449339079401291e-13 -4.3068225364617749e-14 -6.2116141666714350e-14 1.6770944703852012e-05 -24.261860196399997 -200.43215969199997 73.726546483199982 142.71380061529433 0.0000000000000000 0.0000000000000000 0.0000000000000000 0.0000000000000000 3.0021527323595718 3.0043065370204403 1.0021538048139071 1.0010750484214004 29.788402493952852 29.788402493944723 1.0010763232315278 
-24.163718731089418 -187.65380207760322 75.214080572831307 -24.163718731089421 -187.65380207760319 75.214080572831321 -12.157951380270109 2.3298400708924140e-07 -3.2932110982790931e-07 -9.9692129753848188e-08 -12.218965161530962 2.0997655827623141e-10 2.8200859009119844e-10 5.4349186595636922e-08 1.6715529522513784e-05 -1.8484373751601888e-13 1.6392431501566406e-13 1.0963321462354173e-13 1.6790988578280712e-05 -24.157397762799999 -187.63907770800003 75.309882232799993 165.73632395326644 0.0000000000000000 0.0000000000000000 0.0000000000000000 0.0000000000000000 3.0021519445802336 3.0043049558954129 1.0021530114662536 1.0010750484213993 29.471984261418349 29.471984261410093 1.0010759267795615 
-34.893819090930620 -195.42712913726467 81.505618029981434 -34.893819090930634 -195.42712913726453 81.505618029981477 -12.062728732031687 8.9507628457408562e-08 -2.5317879613268810e-07 -5.2460751237584859e-07 0.0000000000000000 2.7494311384893000e-10 3.0260986771946108e-10 5.1659824973349089e-08 1.6661649741189828e-05 -1.3617424333993386e-13 1.7453341614381831e-13 -3.5927528435708844e-14 0.0000000000000000 -34.885542273181727 -195.41132893576267 81.596679120775832 139.46796289390394 0.0000000000000000 0.0000000000000000 0.0000000000000000 0.0000000000000000 3.0021368141443507 3.0042746900283359 1.0021378760364710 1.0010607099488675 29.249757421057918 29.249757421035262 1.0010683671113185 
-18.827949341758735 -194.54537816846121 81.321755370244404 -18.827949341758725 -194.54537816846121 81.321755370244361 -12.249855001925640 1.1623298915186523e-07 -1.5694011155987145e-07 -2.4734842413750294e-07 0.0000000000000000 1.7766791076540003e-10 3.0026731448473676e-10 5.1738416939617338e-08 1.6741733917296810e-05 -8.6434082235742487e-14 1.9045495701931972e-13 3.3810766836716039e-14 0.0000000000000000 -18.822600960987238 -194.52970000168264 81.412954998504986 111.95285379220412 0.0000000000000000 0.0000000000000000 0.0000000000000000 0.0000000000000000 3.0021547580045795 3.0043105865860622 1.0021558287339654 1.0010750484213999 29.732317323246686 29.732317323235982 1.0010773341774772 
-22.670030777475603 -103.21094679313013 43.118696550640756 -22.670030777475603 -103.21094679313013 43.118696550640763 -11.865840366977540 -3.5741857066581552e-07 3.9442998456801057e-07 -5.3650905130421038e-07 -11.971823812297684 2.0093172048082919e-10 5.8177579073670493e-11 6.8068629621720347e-08 1.5235506288823147e-05 -4.2239515663355903e-14 -2.9735547011901468e-13 4.2755487324779641e-13 1.5382194947617398e-05 -22.663982073999996 -103.20790935200000 43.238681550399988 69.202643319072678 0.0000000000000000 0.0000000000000000 0.0000000000000000 0.0000000000000000 3.0021490749295525 3.0042992179599826 1.0021501431826303 1.0010750484214008 28.973359298035795 28.973529579682893 1.0010744944188079 
-30.159074469564136 -110.77719155674772 46.871598742627633 -30.159074469564136 -110.77719155674775 46.871598742627619 -11.568930601639032 4.5439944632314718e-08 6.3154845673666331e-07 -7.3625243362925705e-07 -11.458266824804726 2.4627809817531765e-10 7.8235150996475156e-11 6.6464421688561259e-08 1.5093430337482901e-05 2.8466352882295069e-13 -3.2119812022606973e-13 4.9405527355450371e-13 1.5320584845151291e-05 -30.151660686400003 -110.77310694400001 46.988755992800002 74.715282964229786 0.0000000000000000 0.0000000000000000 0.0000000000000000 0.0000000000000000 3.0021555078950803 3.0043120856547429 1.0021565779116872 1.0010750484214010 28.411476122995222 28.411756148750559 1.0010777084913849 
-18.740482751632360 -103.57013547300210 49.893539034940829 -18.740482751632360 -103.57013547300210 49.893539034940829 -11.349747021472391 -4.3183793279765574e-07 3.1729425015586504e-07 -7.8789092057835229e-07 -11.367027005457176 1.7713834782676074e-10 5.9125263712767064e-11 6.5172667401691697e-08 1.5014395718718477e-05 3.1856255783476931e-14 -4.0599683528596691e-13 3.8345629455760100e-13 1.5056094997146354e-05 -18.735150314000002 -103.56704831999998 50.008419303199993 79.719497061372692 0.0000000000000000 0.0000000000000000 0.0000000000000000 0.0000000000000000 3.0021494001257873 3.0042998677571542 1.0021504677833379 1.0010750484214006 28.050161260068364 28.049992094653138 1.0010746564363517 
-25.498443489936609 -98.489973240684748 50.868092001825971 -25.498443489936605 -98.489973240684762 50.868092001825971 -11.508168623945208 1.5453622022034350e-08 1.4903208319341973e-07 -1.2266730607663937e-06 0.0000000000000000 2.1805786473358399e-10 4.5659753755700188e-11 6.4756088491435548e-08 1.5097773765188318e-05 2.1417392636322757e-14 -2.0480975300340811e-13 3.0136280907955975e-13 0.0000000000000000 -25.491879232152165 -98.487589184379729 50.982237960580505 72.292163684038698 0.0000000000000000 0.0000000000000000 0.0000000000000000 0.0000000000000000 3.0021495106395992 3.0043000932050301 1.0021505827188750 1.0010750484213997 28.299665733025410 28.299626578624512 1.0010747137432221 
-25.291298790521108 -104.23521451043322 108.68603305370902 -25.291298790521100 -104.23521451043324 108.68603305370910 -3.5276361499508679 3.4838961864611758e-07 1.1714547056661442e-06 -1.7038403881171816e-07 0.0000000000000000 1.1596524326849061e-09 1.2134820223006134e-09 4.3672641990003848e-08 1.2809202387529943e-05 -6.7787698021100171e-12 -9.6083869620309360e-13 1.5292943964420648e-11 0.0000000000000000 -25.283559732051039 -104.23282252886388 108.75695162467670 96.378087069502698 0.0000000000000000 0.0000000000000000 0.0000000000000000 0.0000000000000000 3.0024432244261923 3.0048878352175596 1.0024446109039753 1.0012578060835753 15.334898331912090 15.334897978065159 1.0012215514479756 
-25.921701080138515 -118.01511867316131 110.59475245072871 -25.921701080138515 -118.01511867316137 110.59475245072871 -2.7109725060638832 5.3208549463894253e-07 9.7322537125057578e-08 -4.4144151871174285e-07 0.0000000000000000 5.8537804426910101e-10 2.6259825240926900e-09 4.5650552020218278e-08 1.3862904871571668e-05 -5.5943644039476380e-12 5.9427401971895572e-12 1.1830581888780060e-11 0.0000000000000000 -25.913646985361510 -118.01095136745833 110.66456878241424 88.846747377876298 0.0000000000000000 0.0000000000000000 0.0000000000000000 0.0000000000000000 3.0029434460279423 3.0058890749564866 1.0029456293280168 1.0013983928865753 15.774268992800270 15.774269026142751 1.0014717410334451 
-36.248406769082379 -112.72749349703646 111.96916724468464 -36.248406769082386 -112.72749349703646 111.96916724468471 -2.7567577379081594 -3.3456483495772174e-07 6.5259942325195009e-07 3.9628131430126087e-07 0.0000000000000000 3.4851044526164778e-09 2.7832390599854730e-09 4.5766010466815803e-08 1.1052631794555529e-05 3.0457960590781618e-12 -3.9745778785691318e-13 -2.9384709246538094e-12 0.0000000000000000 -36.236867317722961 -112.72601430119678 112.03758904139967 95.996160021407249 0.0000000000000000 0.0000000000000000 0.0000000000000000 0.0000000000000000 3.0029671888108269 3.0059365972704102 1.0029694089082601 1.0014456744308973 15.965182405313673 15.965182196043715 1.0014836042729478 
-33.390843244514301 -105.09687533983683 105.55888364391711 -33.390843244514286 -105.09687533983684 105.55888364391708 -3.4691222093588245 -3.9537754410807453e-09 1.3251112872969151e-06 -2.5693366180215471e-07 0.0000000000000000 1.7469074784122978e-09 1.2086386653999981e-09 4.7509439186736251e-08 1.3824755182593260e-05 -4.1055100460293266e-12 -2.0616532295851292e-12 1.1871951515612825e-11 0.0000000000000000 -33.380789828628046 -105.09637623893835 105.63342596379557 85.433794965156210 0.0000000000000000 0.0000000000000000 0.0000000000000000 0.0000000000000000 3.0027648049070410 3.0055313666818555 1.0027665620024282 1.0013397788960676 16.097290692788871 16.097290628816737 1.0013823247259372 
-112.24179789575713 -160.67447002212893 124.60568513046236 -112.24179789575713 -160.67447002212890 124.60568513046239 -7.7184514407515126 6.1373881042359148e-08 -1.9216069897094710e-07 -4.9247018998051858e-07 -7.6908176330048397 7.4328836878814752e-10 2.1048091741748823e-10 3.3236333685238151e-08 1.3291461370804720e-05 -1.1148912243290467e-13 3.2237620570978903e-13 8.1112461069064845e-13 1.3242811147928100e-05 -112.21942232800005 -160.66347960400000 124.66427103520003 147.55923210393107 0.0000000000000000 0.0000000000000000 0.0000000000000000 0.0000000000000000 3.0022637291265153 3.0045287624827992 1.0022650335721521 1.0010750484213997 22.144381429033420 22.144447726124380 1.0011318852436231 
-99.552680105839329 -158.10532380658793 116.52016295579735 -99.552680105839357 -158.10532380658790 116.52016295579735 -7.9496445933565516 -4.0222376713097312e-07 -3.2021831209816467e-07 -9.5375105517191581e-07 0.0000000000000000 6.6646401288353307e-10 2.0368819131366675e-10 3.6692563321061293e-08 1.4033171263255533e-05 2.2946291675325162e-13 3.7846556165661711e-14 3.9149643142116838e-13 0.0000000000000000 -99.532617471171264 -158.09468895943013 116.58484116745363 117.70414803503969 0.0000000000000000 0.0000000000000000 0.0000000000000000 0.0000000000000000 3.0018670913850936 3.0037344118093769 1.0018673202929174 1.0009601719534991 21.076318960920386 21.076311747672396 1.0009332172146193 
-104.36350208912708 -148.86433570292149 120.83033007903239 -104.36350208912702 -148.86433570292141 120.83033007903245 -7.5057241672124739 -3.5311097513647178e-07 -3.6903871801354155e-07 -4.3371744019007358e-07 0.0000000000000000 6.9558635630920240e-10 1.7918248135240236e-10 3.4850147184739562e-08 1.3351813989944030e-05 -3.9140486487883125e-13 7.6306659811736778e-13 5.4776395412142663e-13 0.0000000000000000 -104.34256255272837 -148.85497981259945 120.89176065121424 119.29379793442074 0.0000000000000000 0.0000000000000000 0.0000000000000000 0.0000000000000000 3.0018928437952037 3.0037861943565494 1.0018933505772940 1.0009710864490700 20.397706306654239 20.398721520058686 1.0009462182770787 
-100.55065423707300 -162.29426931682997 124.50915679662110 -100.55065423707306 -162.29426931682983 124.50915679662106 -7.6347624785416492 -2.1879799986570282e-07 -5.0803558174581479e-07 -4.6132996085072038e-07 0.0000000000000000 6.7249408862782301e-10 2.1479654513378854e-10 3.3277606753534528e-08 1.3494068407045382e-05 -2.7684678023203317e-13 4.4897768857627133e-13 7.8251757233689464e-13 0.0000000000000000 -100.53040969477119 -162.28305471776312 124.56781543385799 141.51484144144280 0.0000000000000000 0.0000000000000000 0.0000000000000000 0.0000000000000000 3.0019303337336924 3.0038613640949730 1.0019310304112075 1.0009789155882056 20.743812427947024 20.743507987710469 1.0009650431773196 
-78.416737614134661 -148.80678591340586 89.363088299594281 -78.416737614134689 -148.80678591340580 89.363088299594295 -8.1700367651470795 -1.0798819260923657e-06 -7.6929350934275839e-07 -3.5981215201886386e-07 -8.1730253686489664 5.3847688851263453e-10 1.7902793483792756e-10 4.8301086158497597e-08 1.5646161839995858e-05 -1.3310528548471813e-13 5.9015532397570525e-13 2.5803984053896179e-13 1.6121514686433850e-05 -78.400527573600002 -148.79743798799998 89.448228916799977 108.06316173413846 0.0000000000000000 0.0000000000000000 0.0000000000000000 0.0000000000000000 3.0022512455217489 3.0045036367253819 1.0022523913835764 1.0010750484214006 22.932505703689063 22.932505248348381 1.0011255698979267 
-80.165892159807626 -162.54589373999818 87.686605899498176 -80.165892159807612 -162.54589373999812 87.686605899498161 -9.9178506456197884 -6.2287179909796135e-07 -1.2593875844758593e-06 -6.6456273257583902e-07 -9.9675677316710694 5.4906542030011551e-10 2.1543577338745123e-10 4.9017709780052605e-08 1.5742608331604965e-05 -2.7043653407136335e-13 6.3253624123513052e-13 4.0005949314110290e-13 1.5887966708751540e-05 -80.149363288800018 -162.53464431600008 87.773009718400019 109.57810873427631 0.0000000000000000 0.0000000000000000 0.0000000000000000 0.0000000000000000 3.0022645016686194 3.0045301263588535 1.0022656248500552 1.0010750484214008 26.031187478617593 26.031187378428285 1.0011321825717885 
-84.312763362660434 -160.19535748541961 94.892220717220496 -84.312763362660448 -160.19535748541963 94.892220717220454 -9.1297332030366185 -4.6534844855008739e-07 -8.7604658904197829e-07 -1.2527671268244031e-06 0.0000000000000000 5.7418201313344519e-10 2.0921736565426843e-10 4.5937612991320258e-08 1.5607445629136488e-05 -1.6694094004909636e-13 3.4412969132823422e-13 4.3182648929840276e-13 0.0000000000000000 -84.295478612813938 -160.18443337667750 94.973195224810283 106.11323630727971 0.0000000000000000 0.0000000000000000 0.0000000000000000 0.0000000000000000 3.0018709532695467 3.0037428407634179 1.0018718876201076 1.0009633181953499 23.030774016211545 23.030773948545214 1.0009354920496483 
-86.491692601119880 -151.39985592340619 92.551746867562244 -86.491692601119880 -151.39985592340611 92.551746867562258 -8.7998287794659316 -5.2222090105163795e-07 -1.1306922597423856e-06 -1.2235735109567748e-06 0.0000000000000000 5.8737334484096348e-10 1.8590530503903580e-10 4.6938058329004668e-08 1.5742500435887943e-05 4.1978946896058221e-13 8.3614246250454463e-15 1.6850219257286816e-13 0.0000000000000000 -86.474010682800568 -151.39014911596544 92.634484883397832 94.367740677547317 0.0000000000000000 0.0000000000000000 0.0000000000000000 0.0000000000000000 3.0020187734287167 3.0040385876277127 1.0020198143590056 1.0009907156715716 22.944123712969727 22.944123896462727 1.0010093971202079 
-26.025316824624021 -132.43797758710275 138.59658055502680 -26.025316824624024 -132.43797758710275 138.59658055502680 -4.6586982879663168 3.8821921653633208e-07 -3.2326743931128729e-07 1.4614535644016971e-06 -4.9078424128341229 2.2124867346193233e-10 1.3565055675957003e-10 2.7255805612469430e-08 1.1620289021158938e-05 9.7906403039877337e-13 -2.7316834277557830e-13 -8.4261292738247177e-13 1.1020292322637980e-05 -26.018656529999991 -132.43089511199997 138.64462455200004 49.421240865332216 0.0000000000000000 0.0000000000000000 0.0000000000000000 0.0000000000000000 3.0021316105829219 3.0042642350904099 1.0021326246575319 1.0011206057806741 16.330242242628650 16.330242270844202 1.0010657491923760 
-32.503287993544603 -133.96410701208933 137.55412068679777 -32.503287993544625 -133.96410701208927 137.55412068679786 -4.4431512009909895 -2.8911428795037341e-08 2.4288255120685879e-07 8.1027899073185088e-07 -3.6619921973001981 2.6046912933799793e-10 1.3968469783631754e-10 2.7701415994396683e-08 1.2593363332971066e-05 1.1829675977781743e-12 1.6568346863517804e-12 2.5218085940640983e-12 7.7644554872685390e-06 -32.495446914399992 -133.95681332000001 137.60295016000006 48.530522504776933 0.0000000000000000 0.0000000000000000 0.0000000000000000 0.0000000000000000 3.0024986292950699 3.0049988672867012 1.0025002382689225 1.0012472668867400 17.362003599557912 17.362003579073622 1.0012493303747687 
-28.425301612817787 -136.44641435252177 140.26323635254079 -28.425301612817790 -136.44641435252177 140.26323635254082 -4.6834303136574738 4.6112794627807008e-07 2.7125291328630304e-07 4.7394068072107316e-07 -4.9071747103052603 2.3577833132074066e-10 1.4625826591507796e-10 2.6543388709221457e-08 1.2296027587911101e-05 6.9719101451276152e-13 6.1211920589901003e-13 1.1153632954605060e-12 1.2051319969120673e-05 -28.418203856399998 -136.43877710800004 140.31002455199999 44.353383947079159 0.0000000000000000 0.0000000000000000 0.0000000000000000 0.0000000000000000 3.0022018751423678 3.0044048187298098 1.0022029437270015 1.0011573556345648 16.680160951401863 16.680160901439908 1.0011008634333716 
-26.775162465481380 -129.50841414685215 143.80421423535856 -26.775162465481387 -129.50841414685220 143.80421423535850 -4.9936251043753250 1.9902610609358495e-07 2.3581654764867509e-07 2.9464640569683817e-07 0.0000000000000000 2.2578623042404655e-10 1.2787644554368427e-10 2.5029782968477576e-08 1.1595063215527427e-05 2.7593538698594062e-13 2.6723137436921248e-13 3.0200375110637257e-13 0.0000000000000000 -26.768365491316434 -129.50173712462359 143.84833436668455 49.139845408488213 0.0000000000000000 0.0000000000000000 0.0000000000000000 0.0000000000000000 3.0022587531250924 3.0045188185705300 1.0022600656569980 1.0011627302549175 17.527274423354264 17.527274346794801 1.0011293923210554 
-40.077983696416375 -65.473885611192600 153.91688064316668 -40.077983696416375 -65.473885611192600 153.91688064316668 -7.0536560780052531 -1.9007780474719097e-07 -1.0472006797284624e-08 3.2259450681220842e-07 -7.1086519811050968 3.0633467073756809e-10 -4.1850297533008167e-11 2.0707024955823886e-08 1.1621512986827197e-05 1.1268977996532697e-14 5.8843674319071031e-15 -2.4529507054205762e-13 1.1624845760679104e-05 -40.068761925200000 -65.476070995999990 153.95338104800004 156.95717166164070 0.0000000000000000 0.0000000000000000 0.0000000000000000 0.0000000000000000 3.0021184703749717 3.0042380067900614 1.0021195365789457 1.0010550323969940 20.446923269020637 20.446918217237450 1.0010592078227083 
-52.438232664715166 -59.652785241530047 149.22377791606303 -52.438232664715166 -59.652785241530061 149.22377791606303 -7.1646425033001240 -2.0335541987080474e-07 -5.0132006330228014e-08 2.5059129419872558e-07 -7.1899801203213931 3.8117957444974709e-10 -5.7286491522701155e-11 2.2713119968154064e-08 1.1595016358098209e-05 1.9692193002678068e-13 -8.4833812183425620e-14 -1.8634101427099526e-14 1.1628432814047941e-05 -52.426757905599978 -59.655776269200025 149.26381449600007 118.05125250056595 0.0000000000000000 0.0000000000000000 0.0000000000000000 0.0000000000000000 3.0021801096329592 3.0043613640903049 1.0021812546330771 1.0010575841855622 20.879275721885058 20.879273644135644 1.0010900343487332 
-35.181246471521582 -66.027661425609949 144.95633907964447 -35.181246471521590 -66.027661425609949 144.95633907964449 -6.8524669064685373 -5.8648778474950690e-08 3.5171443268024118e-08 1.6059624646303518e-08 -6.8432468884867381 2.7668427054691747e-10 -4.0380268573336757e-11 2.4537293696891282e-08 1.1533018907552242e-05 3.2799070016711987e-14 -4.5377478826417227e-14 1.3589006209113147e-13 1.1499139699469325e-05 -35.172917262399999 -66.029770167599992 144.99959110400002 155.12084301790807 0.0000000000000000 0.0000000000000000 0.0000000000000000 0.0000000000000000 3.0021637963427930 3.0043286509630187 1.0021648547705300 1.0010717753802381 20.293043201318515 20.293045308425487 1.0010818424229337 
-50.423935844094842 -66.588097010973257 142.15811015488629 -50.423935844094814 -66.588097010973271 142.15811015488632 -6.9922804712748468 -2.0837673754372854e-07 9.8254108998800720e-08 1.5234846468936787e-07 0.0000000000000000 3.6898251164554918e-10 -3.8896247334108125e-11 2.5733399827698730e-08 1.1587250388700023e-05 1.1312821080903094e-13 -1.1878651000511717e-13 1.5030602063726994e-13 0.0000000000000000 -50.412828244765279 -66.590128188430739 142.20347059834828 136.07757377940416 0.0000000000000000 0.0000000000000000 0.0000000000000000 0.0000000000000000 3.0020098043459549 3.0040203828225311 1.0020105785276350 1.0010208867084287 19.936591115939390 19.936588927769876 1.0010047826606867 
-94.578874864854072 -158.72747210475708 77.532812117811034 -94.578874864854043 -158.72747210475706 77.532812117811062 -11.518101689229470 -2.7059055377607063e-07 -3.7237058884974992e-07 -5.2698718110677271e-07 -11.511903430567658 6.3634158749617541e-10 2.0532213429458324e-10 5.3358028551109278e-08 1.5949888928835295e-05 7.7612770026150553e-14 1.2284236175117322e-14 3.8561739150409779e-13 1.6041103841926470e-05 -94.559718839999974 -158.71675115199997 77.626866652000004 109.98746742214213 0.0000000000000000 0.0000000000000000 0.0000000000000000 0.0000000000000000 3.0021436872019365 3.0042884393742635 1.0021447523248601 1.0010750484213990 28.332482630786178 28.332482543737061 1.0010718013756494 
-89.700406268708335 -158.47709149597023 82.347927382539083 -89.700406268708335 -158.47709149597023 82.347927382539098 -10.768743144200995 -9.5115636737493628e-07 -8.5886309836316645e-07 -1.0652348236921782e-06 -10.501931709821289 6.0679638787600187e-10 2.0467515876587680e-10 5.1299766296031279e-08 1.5747982073485990e-05 6.8174994570580819e-14 6.7494502789956344e-14 6.5756237752226648e-13 1.5994847551182425e-05 -89.682139475999989 -158.46640519600001 82.438353807199988 112.88451412247700 0.0000000000000000 0.0000000000000000 0.0000000000000000 0.0000000000000000 3.0021594188272163 3.0043198754895424 1.0021604568047668 1.0010750484214015 26.990386268606855 26.990386398024956 1.0010796444804044 
-102.73050847509795 -154.95423738007031 86.521704467019561 -102.73050847509788 -154.95423738007040 86.521704467019561 -10.648483062998627 -2.0219117180416712e-07 -2.0077235434380909e-07 -1.2583531495701593e-06 0.0000000000000000 6.8570544077897755e-10 1.9531702297181930e-10 4.9515648969933324e-08 1.5787691806774081e-05 3.3572423359321444e-13 -5.0053816261306508e-14 2.6320453383720681e-13 0.0000000000000000 -102.70986659571734 -154.94403864466588 86.608986019839278 111.02505284862640 0.0000000000000000 0.0000000000000000 0.0000000000000000 0.0000000000000000 3.0021749052958033 3.0043509124600960 1.0021760073207273 1.0010557608783288 27.015323314951537 27.015323053645030 1.0010874150823244 
-100.42728673207004 -167.18580486864971 83.580577503601404 -100.42728673207009 -167.18580486864985 83.580577503601447 -11.236041663261256 -1.1359324976960399e-07 -2.5219003094251165e-07 -1.1947831433105394e-06 0.0000000000000000 6.7175331660077043e-10 2.2774060415287070e-10 5.0772862192349777e-08 1.5781946014462205e-05 1.8129623198035115e-13 1.8085217734640237e-13 2.1785000278301431e-13 0.0000000000000000 -100.40706467681501 -167.17391327890167 83.670075146830683 105.53983917324770 0.0000000000000000 0.0000000000000000 0.0000000000000000 0.0000000000000000 3.0021481803296424 3.0042974308857997 1.0021492507085872 1.0010594979800271 27.796007290490358 27.796007569773675 1.0010740489971826 
-114.64687620198158 -99.808417957636266 96.492495138257496 -114.64687620198157 -99.808417957636266 96.492495138257496 -9.0293822855297279 -2.0743806019320984e-07 -2.7444974106483792e-07 -9.0046440050917409e-07 -9.1353053745278920 7.5785358586492142e-10 4.9154352463331996e-11 4.5253550462476255e-08 1.5257474693912329e-05 2.5068752305693956e-13 4.7171153603202017e-13 1.2727642451292570e-12 1.5289752468779969e-05 -114.62406224400000 -99.805851428000011 96.572263865600007 85.211636250682801 0.0000000000000000 0.0000000000000000 0.0000000000000000 0.0000000000000000 3.0021760847438368 3.0043531952569444 1.0021771105851847 1.0010080579251870 24.102153466845440 24.102023804875593 1.0010879599645379 
-111.10973133417060 -91.099003116374959 100.14425132320486 -111.10973133417063 -91.099003116374973 100.14425132320483 -8.5655705096360162 -9.5054359347692735e-08 -9.1253431284053731e-09 -9.9606275365316698e-07 -8.5029358914791224 7.3643938907144713e-10 2.6070298697611353e-11 4.3692579970722178e-08 1.4743717131445169e-05 -6.2565562013487320e-15 -1.6479459002870034e-13 1.1414826706334416e-12 1.4528049573908677e-05 -111.08756211600000 -91.097641973600034 100.22126851279998 99.535403830130534 0.0000000000000000 0.0000000000000000 0.0000000000000000 0.0000000000000000 3.0022846359332109 3.0045704953892387 1.0022858596596609 1.0010489936576261 23.691065133111557 23.691164773549584 1.0011422832300401 
-112.92684848865741 -97.658073809056219 108.31595136451733 -112.92684848865746 -97.658073809056233 108.31595136451733 -7.9228024262234973 -9.3440799687892101e-08 -5.6873880580349010e-08 -8.8296358996343381e-07 -7.9116126855374631 7.4743225194143215e-10 4.3456415549369964e-11 4.0199524820039307e-08 1.3894973231555880e-05 2.9220976128459576e-13 7.1670705960642549e-13 1.2224032891464935e-12 1.3874432474003262e-05 -112.90434805199999 -97.655804887999992 108.38681131359999 128.09762094244454 0.0000000000000000 0.0000000000000000 0.0000000000000000 0.0000000000000000 3.0021788194339156 3.0043588285018479 1.0021800092516704 1.0010510091705269 22.239339573789248 22.240058518827649 1.0010894108531798 
-107.17611851109164 -103.84432640838273 100.47339582524945 -107.17611851109164 -103.84432640838271 100.47339582524951 -8.4576596441714784 -9.2837427354831718e-07 -9.9905591365774509e-08 -1.0607271869041367e-06 0.0000000000000000 7.1261815936043971e-10 5.9857599779555848e-11 4.3551880712922042e-08 1.5009739027355827e-05 5.8630550014115171e-13 5.6343173977917788e-13 7.4023255621732347e-13 0.0000000000000000 -107.15466629968294 -103.84120130723400 100.55016500991876 102.24201981555134 0.0000000000000000 0.0000000000000000 0.0000000000000000 0.0000000000000000 3.0019124616656314 3.0038253523464342 1.0019128906407599 1.0009537655957710 22.062601571451626 22.061963080085096 1.0009559817249569 
-26.897602399236934 -115.37857272678903 103.29923722820870 -26.897602399236924 -115.37857272678909 103.29923722820874 -3.1637552129871693 7.5025904612624648e-07 3.4239085878647377e-07 -1.1068273853223232e-06 0.0000000000000000 2.9775365135209227e-10 2.7403201618317003e-09 4.8126844190072547e-08 1.8330871092453495e-05 -3.8361483926422897e-15 4.4563695855671722e-12 1.2842614730284830e-11 0.0000000000000000 -26.889884864405381 -115.37486796036181 103.37575244326078 96.382960025775517 0.0000000000000000 0.0000000000000000 0.0000000000000000 0.0000000000000000 3.0026867735205420 3.0053753545890496 1.0026885813584727 1.0013410379302485 15.547543203608084 15.547543237532791 1.0013433874147990 
-109.59022641552038 -103.62486809202075 152.15962543649982 -109.59022641552041 -103.62486809202075 152.15962543649988 -7.3086548746854332 2.2246858600000849e-08 7.0467861496057346e-08 1.3325787412911116e-08 -7.3382970842638295 7.2723828391588207e-10 5.9274529728980951e-11 2.1458178289801566e-08 1.1349625316892841e-05 4.0729323467554010e-15 1.9095374777022673e-14 -3.0675047729656942e-14 1.1284567822487210e-05 -109.56833416800004 -103.62177336400003 152.19744990400002 70.302883591683823 0.0000000000000000 0.0000000000000000 0.0000000000000000 0.0000000000000000 3.0020848793931401 3.0041706793669083 1.0020858000843040 1.0010452768022047 20.775469328245372 20.775377541493462 1.0010423576192038 