# For a description of the Tecplot format see the Tecplot User's guide.
#
Variables=x,y,z,s_u,s_v,s_w,s_p,mono_f_vel_u,mono_f_vel_v,mono_f_vel_w,const,u_nu,v_nu,w_nu,p_nu,x_nu,y_nu,z_nu,const,u_ref,v_ref,w_ref,vol_ref,x_ref,y_ref,z_ref,const,I1,I2,I3,J,p1,p2,p3
Zone f=fepoint, n=1339, e=6475, et=brick, c=black
-59.0540 -70.4277 175.744 -59.054038111238654 -70.427706192120652 175.74376055542771 144.99734487565223 5.9289881284777929e-07 3.1810205071268932e-06 -5.1874279244133035e-06 143.85786037499696 -1.1895800317018870e-10 4.6722070656812775e-12 -5.5252662001237247e-08 -0.0023991693193731738 -2.3030265586722813e-11 3.1162063132777714e-11 -5.3985461505185698e-11 -0.0024110539784928070 -58.668039002000000 -70.473359259200009 176.35421013599998 215.13583165143561 0.0000000000000000 0.0000000000000000 0.0000000000000000 0.0000000000000000 3.0653655267379589 3.1316871848517409 1.0663256403390917 1.0335390574262406 39.587825669476494 39.586313334518323 1.0326337191201307 
-65.384245499340949 -76.394170464874250 183.59411586186982 -65.384245499340963 -76.394170464874236 183.59411586186982 157.74166502801833 -6.4522911249292439e-06 1.2123385326321303e-05 -1.5162652564955352e-05 156.66957099129280 -1.2977801472358053e-10 2.1025403640351215e-12 -3.8955547232433219e-08 -0.0023464950513246811 -4.3222921876400657e-11 4.7424136844804309e-11 -6.2881592953267593e-11 -0.0023565562900800135 -64.963123215600007 -76.414687385200040 184.02450960799996 253.42820447565578 0.0000000000000000 0.0000000000000000 0.0000000000000000 0.0000000000000000 3.0634561949462404 3.1277785422210322 1.0643255891791763 1.0335390574262411 44.952241315936377 44.951419386207021 1.0316685883427437 
-70.110940976440418 -71.543192608343688 176.64693799497573 -70.110940976440403 -71.543192608343688 176.64693799497579 146.15525675785156 4.0467546305894493e-06 3.6799855497503474e-06 -4.6207083599667916e-06 148.43794069616891 -1.3786698865869695e-10 4.1945891204875352e-12 -5.3377680941935068e-08 -0.0024230442444886668 -2.2757279794619621e-11 2.8884520797781030e-11 -5.9297329568144487e-11 -0.0024279813042064886 -69.663592608799988 -71.584146237200002 177.23667228800005 218.29881668600640 0.0000000000000000 0.0000000000000000 0.0000000000000000 0.0000000000000000 3.0627239361972536 3.1263108642324959 1.0635902284222676 1.0335390574262389 32.550320910085425 32.550709044851160 1.0313139607980575 
-57.542618273978896 -87.754115772935705 170.95044973004778 -57.542618273978874 -87.754115772935663 170.95044973004772 136.81692679961455 5.2313563804267345e-06 -6.3624477491332270e-06 -2.1469553361837703e-05 0.0000000000000000 -1.1637157210087071e-10 -2.7990942896849443e-12 -6.5203423993409615e-08 -0.0024021877330086287 8.4478101141531134e-12 4.2747846396501697e-11 -7.8069665433223014e-11 0.0000000000000000 -57.165005282198301 -87.726774323660578 171.67083873969227 259.76550921814646 0.0000000000000000 0.0000000000000000 0.0000000000000000 0.0000000000000000 3.0753327758979050 3.1519979813690511 1.0766717225927731 1.0366038000561180 69.174599722622986 69.174214035983098 1.0376232914967669 
-89.453012641700056 -83.386865015398854 115.11181571288114 -89.453012641700042 -83.386865015398840 115.11181571288122 136.71298875030874 7.0866766103772887e-06 -2.1257714260906063e-05 2.5876174691767535e-06 0.0000000000000000 -1.7093209486729319e-10 -9.2065244317041106e-13 -1.8112280386617388e-07 -0.0031627544937878737 1.6066102261049739e-10 -1.0219991582921468e-10 -1.8637028839828706e-10 0.0000000000000000 -88.898344731952406 -83.377922378373768 117.11292023788836 283.91631954144174 0.0000000000000000 0.0000000000000000 0.0000000000000000 0.0000000000000000 3.0763322839208911 3.1542393280294236 1.0779157765545688 1.0371046337260561 67.705541301305914 67.079301990299030 1.0382231098124217 
-98.198887208770316 -66.840936847463212 106.01029428563558 -98.198887208770302 -66.840936847463226 106.01029428563560 155.45058036590464 5.4708066665134252e-06 5.7851841792744645e-06 -7.2171019810943864e-09 154.77834864522194 -1.8589307176908321e-10 6.2208016515796763e-12 -2.0001730050012156e-07 -0.0032970347112224563 -4.8770798920741408e-12 3.8190089830940076e-11 -2.7709721098327025e-10 -0.0033131203676355840 -97.595692787999965 -66.901700632800015 108.22015140479995 322.25788568967050 0.0000000000000000 0.0000000000000000 0.0000000000000000 0.0000000000000000 3.0633185333693116 3.1274418402025930 1.0641259839147834 1.0335390574262417 41.371410065919058 41.028426985772008 1.0315734114777051 
-80.165669904353010 -67.473350684167229 106.41489767826548 -80.165669904353038 -67.473350684167215 106.41489767826549 146.41597938212655 5.2565845355658977e-06 1.8258622083319546e-06 4.6282547571947891e-06 0.0000000000000000 -1.5505673828242195e-10 5.9454108303214070e-12 -1.9917734750407587e-07 -0.0033295742785315039 3.8949037826611679e-11 -5.0703801292080964e-11 -2.5923675746781405e-10 0.0000000000000000 -79.662532843379708 -67.531450170133141 108.61547480962874 295.38956150422752 0.0000000000000000 0.0000000000000000 0.0000000000000000 0.0000000000000000 3.0716803501600558 3.1446287832578297 1.0729550302621362 1.0356868464485498 50.081293605887851 54.887474183975407 1.0358302432787563 
-95.063586075116206 -81.841937553207401 106.42598539305926 -95.063586075116234 -81.841937553207359 106.42598539305934 153.45502458442093 1.2855333775883796e-05 3.6253831721604437e-06 1.1998991045104322e-05 0.0000000000000000 -1.8053535749684710e-10 -2.4574786650077840e-13 -1.9915433036032937e-07 -0.0033120471402629738 5.5790604849373011e-11 2.1887909369634242e-11 -1.9544948583284332e-10 0.0000000000000000 -94.477787882002133 -81.839503548705352 108.62630821647583 293.80807890400462 0.0000000000000000 0.0000000000000000 0.0000000000000000 0.0000000000000000 3.0725268017869265 3.1464003730359575 1.0738806863816743 1.0359965375072593 45.277876816658029 44.979252469337332 1.0362752153918739 
-47.520057876934089 -126.19134902199409 137.13285920086787 -47.520057876934068 -126.19134902199404 137.13285920086776 42.175745694929446 2.8881126393984317e-06 -8.3106960030741119e-06 -1.2896069975708696e-05 0.0000000000000000 -8.8061374814262826e-07 2.8009998354386690e-07 -3.7784152888163632e-06 -0.0028845450420940757 -6.7402458086252673e-11 3.0978164444407576e-12 -3.2216716494321692e-10 0.0000000000000000 -47.292355390977058 -125.96433165720771 138.67232254046354 244.31333887135355 0.0000000000000000 0.0000000000000000 0.0000000000000000 0.0000000000000000 3.0535293736588902 3.1072638694286785 1.0537346163292902 1.0264299863679884 139.81000767638164 139.81114924539784 1.0265153197995642 
-34.410622971614480 -140.67230815579344 137.72973293990714 -34.410622971614458 -140.67230815579344 137.72973293990711 41.959926504026960 -9.7812108747693608e-06 2.7367532701569780e-06 -2.9959802181104372e-06 0.0000000000000000 -4.2416165112935920e-07 1.2386833093441500e-08 -1.3196689820206292e-06 -0.0026078835140918694 -6.0143831409518783e-12 -2.7335889672358304e-11 -2.8223045793829048e-10 0.0000000000000000 -34.196989160350306 -140.43319657724166 139.21506628885933 210.16870282748488 0.0000000000000000 0.0000000000000000 0.0000000000000000 0.0000000000000000 3.0564509140905378 3.1132774010120836 1.0568267793721224 1.0280470510071404 145.86879145045043 145.86718225081961 1.0280225680822068 
-31.179567436319200 -127.83734428996658 141.32885262261101 -31.179567436319196 -127.83734428996652 141.32885262261098 49.908390862336510 -7.4988957676548351e-06 -6.9324483230827466e-06 -4.8906728784780422e-06 0.0000000000000000 -7.1292714787229996e-11 -2.0093093855422239e-11 -1.2669699778200538e-07 -0.0025003475635949303 -1.6121221527974214e-10 -3.0885164866892320e-12 -1.4506807783787685e-10 0.0000000000000000 -30.948229910445860 -127.64113600963313 142.72864290474456 229.21992526850030 0.0000000000000000 0.0000000000000000 0.0000000000000000 0.0000000000000000 3.0594705638812019 3.1194694207441374 1.0599997988397911 1.0293589855381702 146.21680591484409 146.22300911266123 1.0295594402355763 
-48.640472378457993 -131.15118725580453 145.52577017031794 -48.640472378457993 -131.15118725580444 145.52577017031797 39.802754024091350 -5.6794252648124405e-06 -1.8382268978917266e-05 1.3941251859011847e-05 0.0000000000000000 -8.5909607326014055e-07 4.0976164174889561e-07 -3.2455179362815418e-06 -0.0025649648549347826 -3.0616240237506755e-11 2.0111250792262503e-10 -4.6401825026870753e-10 0.0000000000000000 -48.406431667502837 -130.90513559487593 146.85896726379221 225.63426853136377 0.0000000000000000 0.0000000000000000 0.0000000000000000 0.0000000000000000 3.0509998239712814 3.1021941672195066 1.0511943717853631 1.0258967116178621 138.29104388072713 138.28552822832478 1.0252785853524271 
-53.358705239637544 -85.023586510392406 74.927577225523194 -53.358705239637551 -85.023586510392363 74.927577225523223 144.67914457872843 1.3798377257875346e-05 -4.5966087246069540e-05 0.00016628368211302425 0.0000000000000000 -9.1783258117898838e-08 -2.5269728150434399e-06 -9.6902744133679096e-07 -0.0051183147614294660 -1.0130922973421549e-09 -7.0979703134585418e-09 1.6181195057312547e-09 0.0000000000000000 -53.009977022357148 -84.940192361847963 77.707205907375524 356.07450292316213 0.0000000000000000 0.0000000000000000 0.0000000000000000 0.0000000000000000 3.0700091024257530 3.1409848759776513 1.0709794691102641 1.0346782808664414 34.861752493012212 34.864903335834498 1.0348597091252856 
-40.589860239927866 -85.691148574036276 64.379587825408166 -40.589860239927852 -85.691148574036291 64.379587825408166 204.43115032300256 1.0065681026867459e-05 -1.6664327860643648e-05 4.9679379372226738e-05 0.0000000000000000 4.1671007740253599e-07 -2.4815625113295413e-07 -6.2448719952344188e-08 -0.0043639698092127702 2.3583548832092190e-10 -1.7582874497225587e-10 7.3300198139168659e-10 0.0000000000000000 -40.313282635619565 -85.652866469445740 67.489144002613742 334.72004880612383 0.0000000000000000 0.0000000000000000 0.0000000000000000 0.0000000000000000 3.0733357688940930 3.1476676877445002 1.0743354727916741 1.0355236673145569 97.107231276845098 97.106685067269936 1.0364978198176436 
-43.251454056421714 -94.194743277525831 80.578335649588368 -43.251454056421707 -94.194743277525816 80.578335649588340 118.00947178453879 -6.0311476982314268e-05 -8.7358772633083309e-06 3.6900341238716187e-05 0.0000000000000000 -4.5884875904342675e-07 -6.5926717711023872e-07 -2.3179720093036648e-06 -0.0049805128712864235 -1.9744199331399939e-09 -8.8666209344327622e-11 -3.1625602244811397e-09 0.0000000000000000 -42.930125987095458 -94.071309017270835 83.274511392489799 283.94561953274422 0.0000000000000000 0.0000000000000000 0.0000000000000000 0.0000000000000000 3.0684936555065949 3.1379561253688966 1.0694658718379300 1.0344116377407546 71.594415849338688 71.595717131128126 1.0341438780770078 
-45.255774710291142 -99.044624415275536 64.861923192670631 -45.255774710291149 -99.044624415275521 64.861923192670659 173.80224782558884 3.4950705689914264e-06 -5.9841930829933882e-05 7.5570504820364544e-05 0.0000000000000000 -9.5364931229635630e-11 -7.6719186559159880e-12 -2.8544011776432393e-07 -0.0048422076781145197 8.6701557041635059e-10 -2.3349396708040367e-09 3.2051290895927612e-09 0.0000000000000000 -44.946335306532468 -98.969717126470769 68.015559797458934 339.42980011114588 0.0000000000000000 0.0000000000000000 0.0000000000000000 0.0000000000000000 3.0700514013146871 3.1409959629035558 1.0709475604342698 1.0348682912105123 84.575335032468189 84.571232939136564 1.0348615662571943 
-35.955556144919100 -100.94206556298106 72.425384212317311 -35.955556144919107 -100.94206556298106 72.425384212317326 149.73706568841237 -2.3982314488572637e-05 -1.6319998692601928e-05 3.3218022254433356e-05 0.0000000000000000 -5.1404579212057563e-07 -6.9177174058859175e-08 -7.6756600135920495e-07 -0.0049065131642036181 -1.5898184864575578e-09 3.2851961337761206e-10 -3.0496285268679903e-10 0.0000000000000000 -35.672109309640206 -100.83293553867907 75.360366609178811 338.44965823895870 0.0000000000000000 0.0000000000000000 0.0000000000000000 0.0000000000000000 3.0756828883810767 3.1524953937830578 1.0768168254977237 1.0359214399092607 46.400307479591703 46.400783046558999 1.0376966384603674 
-49.307714664232961 -112.12207815012543 62.167711895031573 -49.307714664232961 -112.12207815012540 62.167711895031552 142.80061618287112 -4.4612833185166333e-05 -3.3639741690239805e-05 5.5608603010679970e-05 120.30571216175052 -1.0229327801480893e-10 -1.3314127578212265e-11 -2.9103321708134899e-07 -0.0051581172995573384 -9.9632793017385464e-10 -9.0870685814944149e-10 1.4004498459070386e-09 -0.0061635764644073915 -48.975793059600008 -111.99207679200002 65.383142959360015 326.57209562220959 0.0000000000000000 0.0000000000000000 0.0000000000000000 0.0000000000000000 3.0668254703309539 3.1347028838534956 1.0678819675081024 1.0339001282350146 38.697006414843592 38.693720169184743 1.0333775218206183 
-25.439022955648404 -110.60548342932684 64.303204990219925 -25.439022955648401 -110.60548342932681 64.303204990219925 172.47485582954562 -8.0405659623189779e-06 -1.3215416077814202e-05 3.6293725864770572e-05 0.0000000000000000 -6.1476705670582277e-11 -1.2651990566325820e-11 -2.8659998907443191e-07 -0.0045054272897042062 -1.4004716736681396e-10 1.9155500675321889e-10 2.7360624258954308e-11 0.0000000000000000 -25.239536857883341 -110.48187134057846 67.469656361758609 349.35568362690350 0.0000000000000000 0.0000000000000000 0.0000000000000000 0.0000000000000000 3.0701577063421688 3.1413929761049921 1.0712398768269467 1.0347060236493781 64.531527279648046 64.531958915652908 1.0350048338987952 
-44.380435328360583 -111.39554209533644 73.496815406577895 -44.380435328360583 -111.39554209533648 73.496815406577937 114.45656182024700 -2.8605819472725366e-05 1.8868336797831072e-05 4.6184269068763738e-06 0.0000000000000000 -9.3865741568333050e-11 -1.3002876553258602e-11 -2.6751433601646113e-07 -0.0050672503043011352 -6.6119748300593050e-10 8.7978977310030171e-10 -2.3644853733235305e-09 0.0000000000000000 -44.075852747763513 -111.26860156453857 76.452402029906395 268.59635586333832 0.0000000000000000 0.0000000000000000 0.0000000000000000 0.0000000000000000 3.0644401425319505 3.1295147398288301 1.0650753548876077 1.0344629558344240 78.010513446538468 78.012135645686456 1.0320254761229952 
-58.549755453280376 -106.86385993159264 103.08869443189376 -58.549755453280355 -106.86385993159271 103.08869443189373 35.886867857984711 -1.9224017257751364e-05 -4.4578793252084949e-05 -1.1204783809735437e-05 0.0000000000000000 -1.7416416962632766e-07 -1.3180276814958866e-06 -3.7149582211535861e-06 -0.0040310888343053596 2.9302731884045876e-10 3.4634798103650543e-10 -1.0636289512523031e-09 0.0000000000000000 -58.254647241440821 -106.62760994408018 105.33920711112118 241.62621693813244 0.0000000000000000 0.0000000000000000 0.0000000000000000 0.0000000000000000 3.0481435991313655 3.0965204194818194 1.0483769225094486 1.0249243334261462 138.32425614273276 138.32526001865975 1.0239012957920677 
-64.693930498707516 -90.270041136869267 94.294278404991900 -64.693930498707473 -90.270041136869224 94.294278404991914 84.063266664911509 2.6971107529058770e-05 -2.0106107696483442e-05 -3.0895817128998012e-05 0.0000000000000000 4.0245911012171802e-07 -9.2995593020728845e-07 -2.4451547527192670e-06 -0.0039177518154119278 -1.6385406744697418e-11 -5.2193913827240574e-10 1.8204610206466434e-09 0.0000000000000000 -64.370648572599308 -90.090304358695661 96.688480747766732 239.98138923263960 0.0000000000000000 0.0000000000000000 0.0000000000000000 0.0000000000000000 3.0595744119673189 3.1197369191659230 1.0601629080945472 1.0318117708783954 106.60441298159317 106.58451539736524 1.0296305551427902 
-76.266382670592691 -99.889639996425714 99.019473318603175 -76.266382670592691 -99.889639996425672 99.019473318603133 72.739972428878531 4.4080972090160413e-05 -5.2731244557999577e-05 1.3980450345397379e-05 0.0000000000000000 3.9412616904824681e-07 -1.0997696888648693e-06 -2.5466521205890446e-06 -0.0040383320415911753 -1.6847873641038844e-10 2.0406704084962427e-10 -1.0131751617272356e-09 0.0000000000000000 -75.913673002404863 -99.702254402691466 101.32606574872912 288.13617662859207 0.0000000000000000 0.0000000000000000 0.0000000000000000 0.0000000000000000 3.0558105946129932 3.1121832835024081 1.0563729332344218 1.0295819483775936 112.21423784767070 112.17698708014083 1.0278048392172012 
-55.454511666713870 -93.779325100308526 101.05346720726217 -55.454511666713870 -93.779325100308569 101.05346720726219 75.768908220049624 1.1769970432992441e-06 -2.0181489874364532e-05 -1.3546438498346232e-05 0.0000000000000000 6.3617208303349054e-08 -8.3642240697384120e-07 -3.4433916254324200e-06 -0.0039425032407588581 -6.0666022722592878e-11 -1.9122992842559149e-10 -5.3386788793995399e-10 0.0000000000000000 -55.164710769962618 -93.586508083202432 103.32606452766413 222.68531933077850 0.0000000000000000 0.0000000000000000 0.0000000000000000 0.0000000000000000 3.0586997449534774 3.1182108730563560 1.0595140890837262 1.0297649883046831 93.675223996487119 93.661381377130198 1.0293289966420571 
-46.076772534867253 -176.29616597268438 154.55266632535131 -46.076772534867267 -176.29616597268435 154.55266632535131 39.422603951821209 2.2793976516630368e-05 2.3455338764023230e-05 -5.0617617422387075e-05 0.0000000000000000 -9.6769529889240160e-11 -4.0981162907627316e-11 -9.9244736873060888e-08 -0.0024123618684629118 3.9093178160742897e-11 1.9270019761511427e-10 -1.6486127284131116e-10 0.0000000000000000 -45.762777822239421 -175.89580528354742 155.64915507299250 248.91339099022119 0.0000000000000000 0.0000000000000000 0.0000000000000000 0.0000000000000000 3.0557559955087235 3.1122247295122389 1.0564712274452399 1.0295630779334117 170.61212254129541 170.61315103303880 1.0278424482144495 
-51.781140868878907 -186.00407058434237 167.35076244371925 -51.781140868878886 -186.00407058434237 167.35076244371928 53.480187531950726 -1.3983665822369636e-07 3.8444247649396582e-06 2.4047000199329625e-06 57.219493263230554 -1.0652306120517708e-10 -4.5166259621254306e-11 -7.2676268558780066e-08 -0.0021767391997106855 8.1757805660636924e-12 -7.5890979406151289e-11 -7.5599816039731204e-11 -0.0021762082395228484 -51.435495451599998 -185.56281141599996 168.15371392000000 294.81703600272857 0.0000000000000000 0.0000000000000000 0.0000000000000000 0.0000000000000000 3.0681713435005409 3.1373783159352762 1.0692114087785358 1.0333582445995033 174.05413729516616 174.05533402390077 1.0340293936573459 
-42.963610256976793 -171.57271508081845 165.41711780423634 -42.963610256976807 -171.57271508081845 165.41711780423623 51.185947974348238 -7.4583639489222958e-07 -5.5130136074568670e-07 -1.6879569985461511e-05 0.0000000000000000 -3.9231275463331741e-08 3.7112858417159205e-07 -4.0259884877928881e-07 -0.0022166228434833744 7.2538741311993650e-11 7.2721834204972235e-11 -1.4566284184037212e-10 0.0000000000000000 -42.672974891599750 -171.18173466392949 166.26923354793541 271.88244999766295 0.0000000000000000 0.0000000000000000 0.0000000000000000 0.0000000000000000 3.0663682122120965 3.1337030097137539 1.0673386376024361 1.0324944263796669 173.02197826138269 173.01892385195148 1.0331216616450147 
-59.772721648078438 -178.42671990739120 156.70345789337807 -59.772721648078452 -178.42671990739112 156.70345789337807 62.890487477160860 2.1785777628861757e-05 4.5617211049871273e-06 2.2415553647892862e-06 0.0000000000000000 -1.2018579881312164e-10 -4.1922076920997142e-11 -9.4779760928531687e-08 -0.0023571049456488882 -3.5104492832963305e-11 1.1410639887077459e-10 -1.5316607698203716e-10 0.0000000000000000 -59.382734921100123 -178.01738339707751 157.75061606229067 243.94852352315442 0.0000000000000000 0.0000000000000000 0.0000000000000000 0.0000000000000000 3.0668800100416238 3.1347935694495117 1.0679179427607766 1.0326100449116538 151.08425084642397 151.08518275670497 1.0334031426800541 
-30.881699573722123 -102.86347471938058 92.878318694495945 -30.881699573722127 -102.86347471938053 92.878318694495931 63.908455926169232 -2.6527202422049549e-05 -2.9271204118705785e-05 8.5900686421379400e-05 0.0000000000000000 4.8547015736152337e-08 -2.6597073801091971e-07 -1.4238468386231066e-06 -0.0042632951443142822 1.6075991489393014e-10 -1.2457667265993363e-09 1.5814113022340825e-10 0.0000000000000000 -30.660097366607719 -102.72526557899965 95.328291536857705 204.58703120518373 0.0000000000000000 0.0000000000000000 0.0000000000000000 0.0000000000000000 3.0596852299221902 3.1201926007318828 1.0605093320725156 1.0305562962951418 131.26415234069870 131.26349017403859 1.0298055486482804 
-18.967802059058293 -111.03135738655639 90.795206101880069 -18.967802059058283 -111.03135738655644 90.795206101880026 95.820905943753814 -2.0054682190084192e-05 -2.3969475380534619e-06 6.1214719178060597e-05 0.0000000000000000 -5.0412334029470423e-11 -1.2840783991663331e-11 -2.3160336759531222e-07 -0.0041675360910097504 -7.7583028461222727e-10 -2.2667554686334932e-11 7.6933377560738064e-11 0.0000000000000000 -18.804221549666405 -110.90595113131390 93.354036648627854 267.24800799435923 0.0000000000000000 0.0000000000000000 0.0000000000000000 0.0000000000000000 3.0677284011662773 3.1365248568712234 1.0688009044113889 1.0333643240180141 88.833694033908571 88.833867516023886 1.0338322216587661 
-34.080539455300617 -104.84046298402271 82.333578201220391 -34.080539455300602 -104.84046298402276 82.333578201220419 109.62945440940572 -1.1530182400694495e-05 -8.9377386888666000e-06 4.4660063574840876e-05 0.0000000000000000 1.4845555202929557e-07 -1.2087372549105394e-07 -1.1888856952377321e-06 -0.0043330275823218623 3.7876829997687338e-10 1.7809972071883043e-11 4.4341769221783135e-11 0.0000000000000000 -33.815892125380543 -104.71065599625929 85.007910193808286 270.69679205096202 0.0000000000000000 0.0000000000000000 0.0000000000000000 0.0000000000000000 3.0735354951147360 3.1481125004556909 1.0745806402003277 1.0349331184327650 96.505567338711401 96.505127264411982 1.0366146829286178 
-19.085416817507078 -100.46055360740910 92.887215810964150 -19.085416817507070 -100.46055360740910 92.887215810964122 82.816522427756126 3.2742175046381181e-06 -8.5435697685605175e-06 2.9308874040802501e-05 0.0000000000000000 -5.0613242763564159e-11 -8.2810425183765801e-12 -2.2726042470111452e-07 -0.0039654582891922169 -4.3998037156493158e-10 -1.9415874953028114e-10 -1.0765579406201051e-10 0.0000000000000000 -18.921183722278450 -100.37968114352928 95.398064000337470 185.31956687594098 0.0000000000000000 0.0000000000000000 0.0000000000000000 0.0000000000000000 3.0659562195223966 3.1329991869658920 1.0670483331140550 1.0331805822934426 109.60893185695524 109.60820548258924 1.0329858399358849 
-31.366473426563463 -118.16239284377104 172.47881179445994 -31.366473426563481 -118.16239284377113 172.47881179445994 86.798445694251512 -3.4710566221560393e-05 -1.8657330552365137e-05 -3.1907949540311496e-05 0.0000000000000000 -4.9227428539850468e-07 -9.6591417868911555e-08 -4.8759110860476081e-07 -0.0024426386297979816 -1.4276931302076645e-10 -1.2529367750553793e-10 -2.3203968815047996e-10 0.0000000000000000 -31.124431206993112 -117.97934695114738 173.21200361760444 258.17126679857051 0.0000000000000000 0.0000000000000000 0.0000000000000000 0.0000000000000000 3.0651571143553813 3.1312494490637026 1.0660953511423725 1.0320414600676990 106.15238356499597 105.96648743742756 1.0325198620218989 
-30.868429384562969 -133.37002358680229 163.90707552229335 -30.868429384562980 -133.37002358680229 163.90707552229344 61.343597002056981 -3.7012334608763099e-05 6.5054558263092893e-06 -5.7490278072753377e-07 0.0000000000000000 -5.5322934357989356e-07 1.2188008244131190e-07 -3.9690749819297682e-07 -0.0023224104936293275 -4.1919944204791132e-10 1.7851324126544323e-10 2.0244942298651819e-12 0.0000000000000000 -30.642131568542830 -133.13454878399213 164.80820313575899 262.24283076768535 0.0000000000000000 0.0000000000000000 0.0000000000000000 0.0000000000000000 3.0613290349259055 3.1234054572473720 1.0620787383283141 1.0302657910933004 134.50606302434466 134.66377679316790 1.0305696782820493 
-42.940146551455811 -120.34877019616198 162.71641537105046 -42.940146551455804 -120.34877019616201 162.71641537105049 39.415846419003593 -4.7034441993356490e-05 -3.1884821550614493e-05 -7.0186362284617784e-06 0.0000000000000000 -7.6761113608642110e-07 -1.8410245858712667e-07 -1.3405775214021234e-06 -0.0026744393329776136 -3.1025795958863929e-10 -6.2677483180140634e-10 1.4420970225400605e-09 0.0000000000000000 -42.676694985445003 -120.10595080876966 163.70375490782192 268.28772502602959 0.0000000000000000 0.0000000000000000 0.0000000000000000 0.0000000000000000 3.0457019674421861 3.0916308179575669 1.0459285297578671 1.0254195917856079 140.59296038932641 140.48612684263523 1.0227101264127683 
-23.938483679501733 -114.37345364669700 160.86097008839369 -23.938483679501729 -114.37345364669693 160.86097008839360 82.828465331482590 -1.5869439144714472e-05 -1.0995045320890928e-05 -1.3896099810585746e-05 0.0000000000000000 -5.8910230860131918e-11 -1.4280743254602156e-11 -8.6148896016879917e-08 -0.0023183580091404817 -6.6528873159882371e-11 1.1725925314806527e-10 -6.6455028189180660e-11 0.0000000000000000 -23.747323328369049 -114.23396745764113 161.81277151251504 321.01516800445251 0.0000000000000000 0.0000000000000000 0.0000000000000000 0.0000000000000000 3.0669525226773411 3.1348970535696918 1.0679482683837331 1.0326409843901101 117.39018456485880 117.81309085260224 1.0334190474130411 
-6.5581736378230113 -105.08791988207456 107.14773060376315 -6.5581736378230140 -105.08791988207457 107.14773060376318 35.963074151062060 -3.8693419527382418e-06 7.4800044207375318e-06 3.7087948748970187e-05 23.941663717971263 -2.9192370742947560e-11 -1.0282497076019579e-11 -1.9765601333432417e-07 -0.0029832467468591624 3.7124686450433132e-11 -1.3971623598852623e-11 -7.5014045846384716e-10 -0.0026980808888522035 -6.4634479885999987 -104.98755276399999 109.33149947120000 327.67017865987640 0.0000000000000000 0.0000000000000000 0.0000000000000000 0.0000000000000000 3.0672661318250269 3.1355184257319402 1.0682564181926428 1.0329873431590502 210.30696299694921 210.30660025219643 1.0335662138773800 
-11.931377319818363 -97.183948979687685 99.068611708363846 -11.931377319818365 -97.183948979687685 99.068611708363846 69.215927101054717 8.5085579085159544e-06 -7.5961771438037097e-06 3.4064425686345763e-05 60.407030207792573 -3.8379320554948748e-11 -6.8610672698810049e-12 -2.1442802911053604e-07 -0.0035940751775208500 -1.2187229825623076e-10 9.8797463979619324e-11 -5.9672739753311442e-10 -0.0035216249199010461 -11.806838433999999 -97.116880539599975 101.43768333439998 212.90238721710071 0.0000000000000000 0.0000000000000000 0.0000000000000000 0.0000000000000000 3.0680476228042761 3.1371999534852821 1.0691575301565364 1.0335390574262413 150.40567742452819 150.40594819981499 1.0340013736920601 
-15.996699980087836 -110.48319971072738 100.76731656560897 -15.996699980087838 -110.48319971072739 100.76731656560899 54.517881874294424 -2.3880637968398875e-05 6.4895492779039648e-06 5.6173587207908375e-05 0.0000000000000000 -4.5330801612397671e-11 -1.2605472221594027e-11 -2.1090156909764346e-07 -0.0034268027987314998 1.9580385270164477e-10 -7.5844030844220565e-11 -1.1760216413637920e-09 0.0000000000000000 -15.849604639409371 -110.36010279166017 103.09742667861765 236.22178992679409 0.0000000000000000 0.0000000000000000 0.0000000000000000 0.0000000000000000 3.0676047788316869 3.1361870028097925 1.0685862375451065 1.0328819294357610 167.44924360490953 167.44932612505556 1.0337250027590155 
-23.940751589025879 -99.611507975409921 99.932591562482301 -23.940751589025876 -99.611507975409936 99.932591562482273 58.446116146955241 -1.7292684293541122e-05 -4.0297999250176111e-05 4.7052359403269640e-05 0.0000000000000000 -5.8914283174171787e-11 -7.9176665224167664e-12 -2.1263443095165260e-07 -0.0036295095751929358 -5.4124670084532115e-10 4.3010948101660496e-10 -1.2458611258525248e-09 0.0000000000000000 -23.749578654390465 -99.534212460059550 102.28184693721489 211.57004919854941 0.0000000000000000 0.0000000000000000 0.0000000000000000 0.0000000000000000 3.0638543770961442 3.1284782878663813 1.0646256140891841 1.0317880023577712 154.32514874327708 154.32537711511625 1.0318062662553553 
-54.341199574320022 -108.59980949695021 111.76565680032866 -54.341199574320015 -108.59980949695019 111.76565680032860 18.711170196061765 -3.5321627013955169e-06 -2.9349314632933656e-05 2.4746271047474301e-05 0.0000000000000000 -4.2652175354847923e-07 -1.0833192061662066e-06 -3.6947572758673612e-06 -0.0040961021163292222 1.5248528712450769e-09 -8.9202322865334728e-10 2.4783350516449310e-09 0.0000000000000000 -54.087034329299712 -108.37170302860723 113.84396407125838 191.01171882188567 0.0000000000000000 0.0000000000000000 0.0000000000000000 0.0000000000000000 3.0446736770105716 3.0895336959413893 1.0448592139495940 1.0231418123764051 159.05287853573407 159.05497899489376 1.0221850734337408 
-41.895431499352512 -107.96360448343975 108.84641656412947 -41.895431499352519 -107.96360448343970 108.84641656412943 27.454299533087877 1.1626361095168017e-05 -2.7875113311758312e-05 -7.2664924501947951e-07 0.0000000000000000 -6.9210905703263453e-07 -3.7720151810714079e-07 -3.1548527283808295e-06 -0.0034269570917433230 -6.2271575877798626e-10 5.9129484026059114e-10 5.1399121331760918e-10 0.0000000000000000 -41.690910404717421 -107.74885629568415 110.97670241767709 270.34727434602189 0.0000000000000000 0.0000000000000000 0.0000000000000000 0.0000000000000000 3.0500158141066058 3.1004855038038239 1.0504702327013680 1.0252024403430990 150.25203808794015 150.25385071151999 1.0249244682634844 