# For a description of the Tecplot format see the Tecplot User's guide.
#
Variables=x,y,z,s_u,s_v,s_w,s_p,mono_f_vel_u,mono_f_vel_v,mono_f_vel_w,const,u_nu,v_nu,w_nu,p_nu,x_nu,y_nu,z_nu,const,u_ref,v_ref,w_ref,vol_ref,x_ref,y_ref,z_ref,const,I1,I2,I3,J,p1,p2,p3
Zone f=fepoint, n=356, e=1130, et=brick, c=black
-66.2715 -97.6011 89.2262 -66.271487219741161 -97.601075339233986 89.226234136929776 -97.661149077570940 -5.5438703025634281e-06 3.1117028677333803e-06 6.4785638443376949e-06 2.3685463029956331e-21 1.1474113306708666e-07 8.1236485871549746e-09 4.8589383260022607e-05 0.0018039447354705838 1.0696719810164317e-10 -6.8670505343501401e-11 -1.1883872461899489e-11 -5.4422995019059683e-22 -65.754724465942431 -97.517594547729473 92.373562431030237 2074.8615187338191 0.0000000000000000 0.0000000000000000 0.0000000000000000 0.0000000000000000 3.0819077911528296 3.1653421827849675 1.0834425177288158 1.0409042452268740 635.72025733604221 635.12505926530173 1.0408854496608191 
-76.331571091660535 -130.81339404996848 75.351147008346757 -76.331571091660550 -130.81339404996851 75.351147008346757 -97.444759049263425 -1.1002305015584749e-05 -5.9401656619464373e-07 2.0511938979711198e-07 -93.308587063307556 1.2977396843250055e-07 2.4638726003889388e-08 5.4548588443559254e-05 0.0017993574618156653 1.9486354031890869e-10 1.4922376763972737e-11 -2.2000348197018850e-12 0.0017892555103181948 -75.747104543999981 -130.56019973999997 78.884476808000016 2128.8259272129790 0.0000000000000000 0.0000000000000000 0.0000000000000000 0.0000000000000000 3.0819334139498546 3.1653950109114382 1.0834697400383462 1.0409042452268746 638.14846167738870 637.04502253070746 1.0408985254737180 
-63.923233884845125 -122.00279067008864 67.488564989092296 -63.923233884845118 -122.00279067008864 67.488564989092296 -93.363360656895992 2.9777642322988903e-06 8.9666342996340292e-07 4.4011245364589814e-07 -86.367551386844738 1.1123212576014119e-07 2.0257584110172641e-08 5.7925485404730643e-05 0.0017928316546413376 -7.0722410347927919e-11 -1.0659498374731334e-10 5.9235119418487668e-11 0.0015581868449446501 -63.422274742800013 -121.79461816400000 71.240629883439979 1237.7701333319521 0.0000000000000000 0.0000000000000000 0.0000000000000000 0.0000000000000000 3.0819795404681392 3.1654863580184722 1.0835149428074249 1.0409042452268757 622.24568891530373 622.21955817722471 1.0409202331416116 
-56.604019367883303 -132.34054517445429 73.043899301574172 -56.604019367883318 -132.34054517445429 73.043899301574157 -86.275744332354094 7.2806380539048490e-06 2.5204075809706464e-06 -5.3449580413244765e-06 -89.420495121033341 1.0029498190289310e-07 2.5398127101450285e-08 5.5539527262560284e-05 0.0016801421935061587 -7.5247575659156127e-11 9.5556743141816266e-12 1.3225594637514827e-10 0.0019932056575570475 -56.152318124399997 -132.07954718800002 76.641416164000006 2090.5778096190215 0.0000000000000000 0.0000000000000000 0.0000000000000000 0.0000000000000000 3.0818722748100815 3.1652722706930478 1.0834081415966013 1.0409042452268740 616.71366365866379 615.77746900767670 1.0408689517387024 
-123.80180423626734 -110.53698607031012 85.969495437638358 -123.80180423626734 -110.53698607031012 85.969495437638344 -114.30132377601566 -6.6352958635738283e-07 1.6044249583620989e-06 -9.1696142881369707e-06 -117.31608917521621 2.0070898351653982e-07 1.4556126803899616e-08 4.9988118558275119e-05 0.0019533755114752478 -1.2662283021425297e-11 -4.5849555702501531e-11 6.0072939610767717e-11 0.0019697575955421169 -122.89786571200003 -110.38740333199999 89.207425400000020 2092.2379289329847 0.0000000000000000 0.0000000000000000 0.0000000000000000 0.0000000000000000 3.0819600813634520 3.1654478990046182 1.0834959512129985 1.0409042452268746 671.16269846417879 670.72019183542545 1.0409111165107294 
-123.67288649518191 -128.74674891029608 90.366329851805318 -123.67288649518193 -128.74674891029605 90.366329851805332 -109.57427144957151 -8.9823215088291388e-07 1.1703588788068088e-06 -8.7401321256545040e-06 -114.83379453054864 2.0051634694318032e-07 2.3611059829509173e-08 4.8099724042849346e-05 0.0018944517478806117 -5.1412443717872536e-12 -4.7383620372320396e-11 3.0615583430690116e-11 0.0017923740088292344 -122.76981557999994 -128.50411506799998 93.481940963999989 2295.0048277193882 0.0000000000000000 0.0000000000000000 0.0000000000000000 0.0000000000000000 3.0819684528767004 3.1654635960669006 1.0835032660335282 1.0409042452268746 660.62050465786149 662.00940553214127 1.0409146238842735 
-87.996918858984799 -119.74983054632838 105.31188889687098 -87.996918858984813 -119.74983054632834 105.31188889687105 -97.911406517087613 -3.1337274580454510e-06 4.7157337802072475e-06 -8.6111890470066234e-06 -1.7257908802066641e-20 1.4720556437697319e-07 1.9137285922621313e-08 4.1680762332241272e-05 0.0017663569791354287 7.5642703667132111e-11 -9.9828868149735587e-11 5.9251355122598819e-11 3.4763371286387094e-21 -87.333945182495114 -119.55317056945796 108.01171823852533 1853.2119812635015 0.0000000000000000 0.0000000000000000 0.0000000000000000 0.0000000000000000 3.0819034741674458 3.1653369268326901 1.0834416131740392 1.0409042452268742 640.28013450164178 637.31831302878334 1.0408850221147226 
-122.79396920366113 -119.14284967877428 104.30995454183203 -122.79396920366115 -119.14284967877428 104.30995454183201 -102.24301555571147 -4.0291853286666710e-07 2.7684095547282113e-06 -4.3128331192463316e-06 -101.15661880246820 1.9920297131270634e-07 1.8835463355681981e-08 4.2111082693807589e-05 0.0018060996998240000 -9.9746670507966576e-13 -6.6356853967429903e-11 4.5724722623480980e-11 0.0018151066079214290 -121.89681335200000 -118.94929134799999 107.03765745040002 1571.7251237143605 0.0000000000000000 0.0000000000000000 0.0000000000000000 0.0000000000000000 3.0819371214982541 3.1653987667430106 1.0834697484874178 1.0409042452268742 646.05435556958582 649.16511400357660 1.0408985294676312 
-44.546055580497523 -164.04734096051718 121.39753842897767 -44.546055580497523 -164.04734096051712 121.39753842897770 -70.313142161403178 1.1252451054962022e-05 -1.2865627606031530e-05 5.3492955521216404e-06 0.0000000000000000 8.2276701590666690e-08 4.1164575581564833e-08 3.4772143661321309e-05 0.0014178299699025261 -2.6283797103859872e-10 2.8874374661944796e-10 3.4773901939345896e-12 0.0000000000000000 -44.175503749389662 -163.62432261291502 123.64986896362305 1288.7765825848380 0.0000000000000000 0.0000000000000000 0.0000000000000000 0.0000000000000000 3.0817875952188549 3.1650948425880974 1.0833152990810455 1.0409790092162836 583.29858687850242 586.93692023441668 1.0408243798644745 
-15.654340063986250 -144.18629772791527 134.16586937456469 -15.654340063986247 -144.18629772791525 134.16586937456466 -71.108844400165282 2.7943550042671412e-06 -7.7746566602432393e-06 4.2410561359106669e-06 -72.252538282720707 3.9103661420014646e-08 3.1288516499916597e-08 2.9288278709849184e-05 0.0014197332711669791 -3.6309009292214972e-11 1.8288701438270410e-10 -3.5625528288177519e-11 0.0013852878091750247 -15.478227839600008 -143.86476845600004 136.06298808800005 1207.7015194609139 0.0000000000000000 0.0000000000000000 0.0000000000000000 0.0000000000000000 3.0814834740031363 3.1644796542396993 1.0830042026161542 1.0408704146656187 590.41426157966157 591.59652183187904 1.0406748982559646 
-44.546055580497523 -164.04734096051718 137.48318796108433 -44.546055580497523 -164.04734096051720 137.48318796108435 -82.585697153405533 9.0950432011389241e-07 -5.8378188400883311e-06 5.6464974800840361e-06 0.0000000000000000 8.2276701590666677e-08 4.1164575581564839e-08 2.7863524962867814e-05 0.0015626631813777585 -2.4768703960317675e-11 1.6357708738048946e-10 -7.3249539861276937e-11 0.0000000000000000 -44.175503749389669 -163.62432261291511 139.28801968872074 2260.0113226803110 0.0000000000000000 0.0000000000000000 0.0000000000000000 0.0000000000000000 3.0818537732593692 3.1652322343459365 1.0833865699608654 1.0408904249409370 613.43278938061610 612.16523785057836 1.0408585766900531 
-5.9929650556017720 -161.87062472135105 128.36695277214747 -5.9929650556017720 -161.87062472135102 128.36695277214747 -89.297199445237453 7.5375168194896752e-06 -6.3719544721220373e-06 3.5593188506472564e-06 -93.291283541420611 2.4666618136937043e-08 4.0082186958390054e-08 3.1778852886965581e-05 0.0016250791220688940 -1.4106120761614973e-10 1.6324918163569525e-10 -4.4314142861536461e-11 0.0015981258076424307 -5.8818733370400009 -161.45872929999999 130.42539591680000 1840.5999298976626 0.0000000000000000 0.0000000000000000 0.0000000000000000 0.0000000000000000 3.0820087381703933 3.1655468953007264 1.0835463055162613 1.0409042452268726 625.85914323646091 625.41784695301862 1.0409353022764500 
-9.9181761775792712 -107.24171360189348 182.43480839832924 -9.9181761775792712 -107.24171360189348 182.43480839832927 -98.987943786564571 -1.7999503299612012e-06 1.0339761386566047e-06 3.5814168689795359e-06 -99.818336342430612 3.0532082209711042e-08 1.2917525105127227e-08 8.5572728911742502e-06 0.0016451719459698953 -2.3411726089217638e-12 -3.7660968045490887e-11 -4.4541222949610214e-12 0.0016796935339246438 -9.7806680107999995 -107.10896956400003 182.98909712000000 1021.2952016557671 0.0000000000000000 0.0000000000000000 0.0000000000000000 0.0000000000000000 3.0819455998811698 3.1654184388748452 1.0834809685510922 1.0409042452268742 641.55155377893959 641.34262655045188 1.0409039184291708 
-17.756023157601259 -108.77782798826154 193.13737070082590 -17.756023157601255 -108.77782798826152 193.13737070082587 -102.55100454884212 -2.8986312799278938e-06 1.2241285267752895e-06 1.8145531023112866e-06 -104.30166126939125 4.2244218803610956e-08 1.3681376309637727e-08 3.9606340411779684e-06 0.0016351083369779960 -1.4599918238521247e-11 -4.2156041667248319e-11 8.8964410489143967e-12 0.0016824370335113987 -17.565766725200003 -108.63723447200002 193.39391677600000 1230.2822850381203 0.0000000000000000 0.0000000000000000 0.0000000000000000 0.0000000000000000 3.0819422575142084 3.1654116129729291 1.0834774837022922 1.0409042452268733 649.65629086245247 649.47612803763866 1.0409022440581090 
-44.546055580497523 -119.74983054632838 169.65448702529773 -44.546055580497523 -119.74983054632851 169.65448702529784 -99.915814866338962 3.4823429678708123e-07 3.6062785678148905e-06 5.4145871621492214e-06 0.0000000000000000 8.2276701590666703e-08 1.9137285922621317e-08 1.4046287620139708e-05 0.0016489911803080370 3.9164464451127842e-12 -7.5826059071289596e-11 2.5296324090595496e-11 0.0000000000000000 -44.175503749389591 -119.55317056945772 170.56432113891603 1872.3464537223574 0.0000000000000000 0.0000000000000000 0.0000000000000000 0.0000000000000000 3.0819662584581864 3.1654601511043765 1.0835020248168705 1.0409042452268733 643.24823185692185 643.87209628080745 1.0409140380802928 
-9.4663070012520834 -124.61864788783048 188.47847285454122 -9.4663070012520816 -124.61864788783046 188.47847285454122 -99.827039362503868 -1.4644165290963505e-06 -1.3389713265272022e-06 2.6495699168092825e-06 -99.778018719349333 2.9856851366250048e-08 2.1558338725302661e-08 5.9615820608982509e-06 0.0016348143741078643 -1.8059201027863296e-11 2.3983286890551899e-11 -1.2353810639117133e-11 0.0016503075069919501 -9.3318398883999993 -124.39710846400000 188.86462832000004 1016.3527334425750 0.0000000000000000 0.0000000000000000 0.0000000000000000 0.0000000000000000 3.0819407615948644 3.1654085896060549 1.0834759559811855 1.0409042452268733 643.52181567227683 643.43336243005331 1.0409015098934267 
-44.546055580497523 -164.04734096051718 105.31188889687098 -44.546055580497523 -164.04734096051712 105.31188889687104 -80.046717012007576 3.5618044501556209e-06 -1.7100607420252049e-05 -1.5099949969262619e-05 9.5274271147096062e-20 8.2276701590666690e-08 4.1164575581564833e-08 4.1680762332241266e-05 0.0015278738436159832 -7.2466274307574616e-11 3.6066695373390457e-10 6.9174563791077910e-11 -1.9149893349183517e-20 -44.175503749389662 -163.62432261291499 108.01171823852535 1450.3671205666894 0.0000000000000000 0.0000000000000000 0.0000000000000000 0.0000000000000000 3.0823643084474330 3.1662809170123434 1.0839249507616844 1.0410528802877761 608.97948398342135 622.56557427564269 1.0411171516905808 
-61.639242781061988 -161.36415324994118 82.673149280456684 -61.639242781061981 -161.36415324994127 82.673149280456698 -98.601234985929707 -5.7716456303337111e-06 -1.4394903599248653e-05 -3.4896501992766881e-06 -100.74384723718596 1.0781914591695421e-07 3.9830318321332214e-08 5.1403864850918510e-05 0.0017091459882373461 1.0619080282122056e-10 2.8214932636379216e-10 1.1564175211252492e-10 0.0018372382232337285 -61.153654769600031 -160.95484587600001 86.002782780800032 1645.6757988676138 0.0000000000000000 0.0000000000000000 0.0000000000000000 0.0000000000000000 3.0816563814723015 3.1648414414923001 1.0831932357476004 1.0408384480857267 643.78753149712077 642.22384964863943 1.0407657002249950 
-44.603637864211272 -168.44711148954798 79.868738223774272 -44.603637864211272 -168.44711148954792 79.868738223774258 -105.43041457127129 3.2826468556880793e-07 -1.4625738524412321e-05 -2.2647949516319144e-06 -95.827690255459927 8.2362749814768321e-08 4.3352402057106332e-08 5.2608330147307925e-05 0.0017742664843857512 5.6362804775578133e-13 2.9708515347672688e-10 8.1050831498044777e-11 0.0017815397611771408 -44.232698507600013 -168.00161050399998 83.276389748800028 1737.4139093181343 0.0000000000000000 0.0000000000000000 0.0000000000000000 0.0000000000000000 3.0819316247082518 3.1653870060103699 1.0834634779976580 1.0409042452268740 652.73527046620325 649.84449200102983 1.0408955188138835 
-44.546055580497523 -186.19609616761156 105.31188889687098 -44.546055580497523 -186.19609616761142 105.31188889687105 -108.15196365192901 -5.2154272657158512e-07 -7.4222969500852143e-06 -6.7053945880382372e-06 -7.0108283344560942e-21 8.2276701590666677e-08 5.2178213250098082e-08 4.1680762332241279e-05 0.0018015544007262073 2.2834171044341635e-11 1.7345727428152979e-10 9.2353255058125414e-12 1.4179358470723564e-21 -44.175503749389676 -185.65989863464350 108.01171823852533 1616.4576808433910 0.0000000000000000 0.0000000000000000 0.0000000000000000 0.0000000000000000 3.0818610004119482 3.1652463824688217 1.0833934782992778 1.0408870260250063 658.84497810916298 658.65678134490986 1.0408618887608945 
-87.996918858984799 -141.89858575342279 137.48318796108433 -87.996918858984813 -141.89858575342271 137.48318796108430 -94.672256542324590 -2.7219758165689947e-06 -1.2423464013963837e-06 2.5770793812749489e-06 0.0000000000000000 1.4720556437697319e-07 3.0150937913031577e-08 2.7863524962867814e-05 0.0016905094221400787 6.2397111190945563e-11 3.0150206320983472e-11 -1.4111321348754494e-11 0.0000000000000000 -87.333945182495100 -141.58874659118649 139.28801968872074 1877.7986991733408 0.0000000000000000 0.0000000000000000 0.0000000000000000 0.0000000000000000 3.0817414544703889 3.1650009167872675 1.0832675261002640 1.0408019603163712 634.08072067182593 633.25552229596951 1.0408013435272023 
-66.271487219741161 -164.04734096051718 137.48318796108433 -66.271487219741161 -164.04734096051723 137.48318796108438 -88.962608828395219 -5.8425695914491893e-06 -2.1549927916838570e-06 4.4304034199607494e-06 -1.5639449143709950e-21 1.1474113306708664e-07 4.1164575581564826e-08 2.7863524962867814e-05 0.0016283690660470220 1.3625310073085892e-10 6.3305401130200762e-11 -4.1391080953040791e-11 2.9896710482983586e-22 -65.754724465942374 -163.62432261291517 139.28801968872077 2018.1238718776010 0.0000000000000000 0.0000000000000000 0.0000000000000000 0.0000000000000000 3.0817167329480553 3.1649523634750532 1.0832436963459526 1.0408592131322207 623.62065104495446 624.35508427317734 1.0407899445337283 
-87.996918858984799 -164.04734096051718 121.39753842897767 -87.996918858984813 -164.04734096051715 121.39753842897777 -97.370915844697961 -4.1958220676122221e-06 -2.8828508069757972e-06 -2.3786288056461381e-06 0.0000000000000000 1.4720556437697321e-07 4.1164575581564839e-08 3.4772143661321309e-05 0.0017209945687453299 9.4803971167326188e-11 6.5447752786036402e-11 1.8515998925721842e-11 0.0000000000000000 -87.333945182495114 -163.62432261291505 123.64986896362312 1549.0027140339625 0.0000000000000000 0.0000000000000000 0.0000000000000000 0.0000000000000000 3.0820369445076632 3.1656034808115172 1.0835746788002070 1.0409144368279182 640.09920557675071 642.39180255662006 1.0409489229183075 
-87.996918858984799 -141.89858575342279 121.39753842897767 -87.996918858984813 -141.89858575342271 121.39753842897778 -87.759772496985903 -1.1280007262525930e-05 -4.4028795284893378e-06 4.3593408319780506e-07 0.0000000000000000 1.4720556437697319e-07 3.0150937913031577e-08 3.4772143661321315e-05 0.0016254319112982121 2.5253579159532069e-10 8.7558737391632171e-11 1.5721642735431852e-11 0.0000000000000000 -87.333945182495086 -141.58874659118649 123.64986896362313 1389.1126189879024 0.0000000000000000 0.0000000000000000 0.0000000000000000 0.0000000000000000 3.0817143971697440 3.1649317641394856 1.0832252763573955 1.0408835011785247 620.12918903661318 617.20422187613906 1.0407811601844412 
-45.575111245365598 -110.48301779876644 44.454248660281571 -45.575111245365591 -110.48301779876645 44.454248660281571 -127.09795884168241 2.7278749171368167e-06 5.0657637172337763e-06 -6.3436976115599792e-06 -127.13403809750746 8.3814430701378852e-08 1.4529294045662056e-08 6.7818483989512388e-05 0.0021610065394403371 2.3226239190774326e-11 -4.3061522066578964e-11 1.0760029371465744e-10 0.0020968934275708210 -45.197633928000002 -110.33371083599998 48.847122559999995 1069.0094105005942 0.0000000000000000 0.0000000000000000 0.0000000000000000 0.0000000000000000 3.0819481696723421 3.1654235985520054 1.0834835582982669 1.0409042452268744 690.72412928666211 690.60424830924796 1.0409051626244175 
-57.581915499383165 -98.921485562085465 41.758157612356328 -57.581915499383129 -98.921485562085451 41.758157612356321 -137.37368184965214 -3.2455213208943168e-06 5.3791239112744098e-06 -8.5980660582885725e-06 -137.85134443813146 1.0175625744790473e-07 8.7802257131563960e-09 6.8976426971012472e-05 0.0022826981569553585 1.1745530888553470e-10 -3.0151577180307705e-11 1.0265948376681221e-10 0.0024202056353662283 -57.123633070400032 -98.831257531200038 46.226036100800002 1475.5774262919704 0.0000000000000000 0.0000000000000000 0.0000000000000000 0.0000000000000000 3.0819465011948619 3.1654201947159262 1.0834818224213694 1.0409042452268744 709.98538990682982 710.02313308783573 1.0409043290947435 
-60.618358644727813 -105.71192067390551 53.108796718258951 -60.618358644727799 -105.71192067390551 53.108796718258958 -121.95432138618301 3.2414084499461619e-07 1.5791767646758980e-05 -1.4929347440137350e-05 -95.959781645764664 1.0629362920400176e-07 1.2156824158449098e-08 6.4101445872211116e-05 0.0021040655624314738 1.0633300327767584e-10 -1.5677674094057154e-10 3.0996596337201419e-10 0.0025583022542175825 -60.139641125599979 -105.58699381199996 57.260903223199996 1724.6135661994952 0.0000000000000000 0.0000000000000000 0.0000000000000000 0.0000000000000000 3.0819424768650299 3.1654120491923474 1.0834777007198277 1.0409042452268749 679.32957918190664 679.79473068606262 1.0409023499656984 
-19.608746010517095 -88.151248954394816 53.559508819474146 -19.608746010517102 -88.151248954394788 53.559508819474139 -123.32193457136587 -2.5062004961114250e-06 1.8889351388364775e-06 -1.2512673608454484e-05 -124.45303517262886 4.5012750582440468e-08 3.4246513958002826e-09 6.3907869731316680e-05 0.0021172783434267942 1.8685619947135246e-11 -1.1300426201435156e-10 2.7207202653535439e-11 0.0021239317838914053 -19.406020858399991 -88.116056368799974 57.699076624800000 1439.6451283969650 0.0000000000000000 0.0000000000000000 0.0000000000000000 0.0000000000000000 3.0819444846831066 3.1654160936857036 1.0834797374289094 1.0409042452268744 685.41928888173072 685.69654040328965 1.0409033280989664 
-59.246018647987285 -179.08820164603409 75.218152129173703 -59.246018647987285 -179.08820164603409 75.218152129173703 -120.88887317287620 -2.1395086386917805e-06 -2.7823395392486524e-06 -3.7842953835667910e-06 -123.54050014586322 1.0424293442334863e-07 4.8643757633026758e-08 5.4605708358579357e-05 0.0019267230066543886 4.9253526718922249e-11 1.6978726101286299e-11 1.0438445128041188e-10 0.0020885238992957378 -58.776536899199989 -178.58832514800000 78.755181813599989 1584.4809985467919 0.0000000000000000 0.0000000000000000 0.0000000000000000 0.0000000000000000 3.0820661234376128 3.1656645542293722 1.0836066084638423 1.0409042452268737 682.21525121519460 682.77329497015182 1.0409642813503679 
-75.039145286899398 -185.47532771320280 68.501892915144452 -75.039145286899398 -185.47532771320286 68.501892915144467 -125.23010936013479 -1.6430680903415811e-06 -2.3473282085161537e-06 -1.1619676722405905e-06 -125.78655977966014 1.2784269073917720e-07 5.1819812607600824e-08 5.7490271635707302e-05 0.0019828142934764643 1.9664139443687300e-11 8.3313096795734616e-12 3.3317446201409044e-11 0.0019407703324263263 -74.463376691600018 -184.94281327599995 72.225767276240006 1182.3928641350060 0.0000000000000000 0.0000000000000000 0.0000000000000000 0.0000000000000000 3.0819272505279485 3.1653783388296119 1.0834591799619118 1.0409042452268742 689.91251302362718 689.94669259250702 1.0408934464096846 
-70.280516599335954 -212.25783726775111 83.279502871987503 -70.280516599335940 -212.25783726775109 83.279502871987489 -122.58809120710389 2.4144321494992170e-07 5.5787314792649786e-07 -3.8702881902418522e-06 -122.38800811780166 1.2073184538219373e-07 6.5137612581533944e-08 5.1143442301615494e-05 0.0019419834156421934 1.6347260074717851e-12 4.8140079175947221e-12 3.2107957797349865e-11 0.0019509370256028716 -69.736773305200003 -211.58846536000007 86.592267764799999 1391.6778601551057 0.0000000000000000 0.0000000000000000 0.0000000000000000 0.0000000000000000 3.0819755782424307 3.1654821572924763 1.0835147492335120 1.0409042452268737 683.50239938687798 683.38074338686772 1.0409201533898735 
-87.473293805982379 -207.92112811874168 87.101695802450564 -87.473293805982379 -207.92112811874173 87.101695802450564 -120.37183904575703 2.0194087676179929e-06 -9.3662211013612869e-07 -4.6019814583173261e-06 -125.92506539400669 1.4642310738888217e-07 6.2981160231512234e-08 4.9501850305055939e-05 0.0019295064322800636 -2.3603142065364777e-11 1.8094432995662403e-11 -2.2927196549330488e-11 0.0019541896722009666 -86.813844096400004 -207.27391660800001 90.308128229600001 1955.0875990986240 0.0000000000000000 0.0000000000000000 0.0000000000000000 0.0000000000000000 3.0820315044853195 3.1655938568418192 1.0835705167762641 1.0409042452268735 683.10866156767429 683.28171546789247 1.0409469422361304 
-74.948773302570643 -213.25983559606192 97.746795327022269 -74.948773302570643 -213.25983559606192 97.746795327022269 -117.02874909699874 -2.8921612947188034e-07 2.2855019441538295e-07 -1.2431594154925963e-06 -118.75880189489496 1.2770764087899342e-07 6.5635857360302197e-08 4.4929891103606672e-05 0.0018871751438101381 6.5886113402045850e-12 -2.8367789911650493e-12 9.6243637535210705e-12 0.0019030223156931187 -74.373612905599998 -212.58534351999998 100.65708370800000 988.41240310934302 0.0000000000000000 0.0000000000000000 0.0000000000000000 0.0000000000000000 3.0820365411928119 3.1656075025117469 1.0835791659785250 1.0409042452268717 676.61047122790251 676.68217190078224 1.0409511041150508 
-66.271487219741161 -186.19609616761156 105.31188889687098 -66.271487219741161 -186.19609616761142 105.31188889687105 -109.59776081501026 4.5707795117590078e-07 -5.3313627388209617e-06 -7.2315951653352121e-06 -4.5039250682654761e-20 1.1474113306708669e-07 5.2178213250098082e-08 4.1680762332241272e-05 0.0018228213541036837 5.0064599521051214e-12 1.2551044675839227e-10 9.5224441733685538e-12 9.0534082152660486e-21 -65.754724465942374 -185.65989863464350 108.01171823852535 1808.0980320372519 0.0000000000000000 0.0000000000000000 0.0000000000000000 0.0000000000000000 3.0816076687540046 3.1647181831824716 1.0831183909606490 1.0408151740255494 660.13254967789931 659.57868857699839 1.0407297037662977 
-84.098092225986520 -209.01341951675059 106.35405616457750 -84.098092225986520 -209.01341951675062 106.35405616457750 -112.59833944675400 7.4980558860973682e-07 -8.8067789945955865e-07 -5.2750305643830662e-06 -111.06440566308972 1.4137951651060909e-07 6.3524290883076873e-08 4.1233162364484599e-05 0.0018521194338147436 -1.4891730370917041e-11 8.1858760885358345e-12 5.1261648351730174e-11 0.0018494809716356297 -83.461357431600007 -208.36062644399999 109.02489266960001 1287.0831768928649 0.0000000000000000 0.0000000000000000 0.0000000000000000 0.0000000000000000 3.0820646839827388 3.1656635921837148 1.0836071071457722 1.0409042452268733 665.12730420823630 665.93581468467903 1.0409645184267375 
-41.911663293234255 -130.29682711517546 61.845603708999917 -41.911663293234255 -130.29682711517540 61.845603708999910 -104.71799891396751 3.9656882928036109e-06 3.4492769417201312e-06 -8.2424498859686953e-06 -105.31143149920165 7.8340116976827190e-08 2.4381868468648090e-08 6.0349078411903179e-05 0.0018905022579241821 -1.9595606884369006e-11 6.9169203374095406e-13 1.7132024010890458e-10 0.0020611569996694047 -41.558840772800004 -130.04627243999997 65.754654395919971 2180.9238908936368 0.0000000000000000 0.0000000000000000 0.0000000000000000 0.0000000000000000 3.0819722665955713 3.1654726827699315 1.0835085520380172 1.0409042452268742 654.79034147431582 654.72028136963229 1.0409171632673215 
-23.013738416683388 -134.71826267650343 51.715115360647381 -23.013738416683392 -134.71826267650343 51.715115360647374 -115.81996734152141 2.6720119967641113e-06 1.4259101512649647e-06 -3.2346412384758205e-06 -116.32630685016969 5.0100847748257855e-08 2.6580457890279519e-08 6.4700017477825611e-05 0.0020170579752734692 -1.4306818982142842e-11 1.2188616306883735e-11 3.6548075438239260e-11 0.0019966718046002460 -22.788097858800000 -134.44511465599999 55.905993737599999 935.86986824075086 0.0000000000000000 0.0000000000000000 0.0000000000000000 0.0000000000000000 3.0819318218869300 3.1653902254486392 1.0834665276766884 1.0409042452268740 671.19431903353473 671.07779093209683 1.0408969858323383 
-11.171713802294411 -103.71717032954129 58.095257751956673 -11.171713802294413 -103.71717032954126 58.095257751956666 -114.92727091087573 -2.4032282573860277e-06 -9.2608690482404262e-07 -1.1546422276633341e-05 -113.68502308307892 3.2405249775213640e-08 1.1164919044848178e-08 6.1959812874157194e-05 0.0020081424310813873 5.7533035143979858e-12 -6.4409916934234577e-11 3.0480560455592781e-11 0.0020023573684058251 -11.025769398400001 -103.60243655599999 62.108642139439993 1284.9349949311236 0.0000000000000000 0.0000000000000000 0.0000000000000000 0.0000000000000000 3.0819397344460082 3.1654064345799378 1.0834748275066661 1.0409042452268744 672.47086098367492 672.55180006778892 1.0409009707122334 
-29.261945431502081 -141.06991309664338 66.285719531524251 -29.261945431502081 -141.06991309664338 66.285719531524251 -103.69238103800238 3.2619289234506072e-06 4.3469737947894725e-06 -9.0594072037275945e-06 -102.04219072458979 5.9437578053822535e-08 2.9738863871475723e-08 5.8442094982957826e-05 0.0018625818450821298 -3.3073688500821269e-11 1.5821443943066419e-11 1.5546757111351793e-10 0.0020764430185918298 -28.994254794799993 -140.76430841599998 70.071247290159988 2176.9829965296321 0.0000000000000000 0.0000000000000000 0.0000000000000000 0.0000000000000000 3.0819874412179469 3.1655039243263960 1.0835246269741574 1.0409042452268737 649.16897152315676 649.49302855608391 1.0409248799423538 
-104.17826590029048 -194.63323390348867 90.940786325372812 -104.17826590029048 -194.63323390348867 90.940786325372798 -116.53200490928489 -8.1768475147932607e-07 1.1173426439567009e-08 -3.7802526743972276e-06 -120.31610879309117 1.7138542393602130e-07 5.6373655576980042e-08 4.7853000972430948e-05 0.0019045289747243706 8.5462544737530567e-12 -2.0096971990046640e-11 2.3656532065862252e-12 0.0018821710157412631 -103.40639267600000 -194.05392295999994 94.040416199999996 2662.2783756828549 0.0000000000000000 0.0000000000000000 0.0000000000000000 0.0000000000000000 3.0820182075260543 3.1655692776099404 1.0835592569833388 1.0409042452268737 674.04814451438165 674.11169658595634 1.0409415363754770 
-83.138779498944629 -162.71760579416147 74.237584701721502 -83.138779498944601 -162.71760579416147 74.237584701721502 -118.31523609404771 -5.3558679045391122e-06 -4.4917293294141573e-06 -6.6975036107913515e-06 -116.47757152841227 1.3994601352762537e-07 4.0503353726517588e-08 5.5026851842221454e-05 0.0019361491077932069 7.3951071138915515e-11 4.9406706669980067e-11 1.9306369695564206e-10 0.0022561825330904696 -82.508500824799995 -162.30138233600007 77.801893530400037 2229.3857910936085 0.0000000000000000 0.0000000000000000 0.0000000000000000 0.0000000000000000 3.0820710828352902 3.1656750349751901 1.0836121314459097 1.0409042452268737 676.74865213262262 677.33173193565176 1.0409669381132789 
-28.251988911827961 -125.28701934810202 125.41895081200434 -28.251988911827969 -125.28701934810206 125.41895081200435 -61.949838975909856 -4.1890669211874628e-06 9.3435203704874461e-07 1.3098541691022239e-05 -1.8830997266724139e-20 5.7928394692208223e-08 2.1890702639471019e-08 3.3044988978936374e-05 0.0013169526044797132 1.2974114028415618e-10 -1.9978825643815553e-11 -9.7423320837543985e-11 3.6539853678296784e-21 -27.991095225219734 -125.06206457489009 127.55940664489751 1124.7619503421174 0.0000000000000000 0.0000000000000000 0.0000000000000000 0.0000000000000000 3.0818280648918193 3.1651743314825858 1.0833543074383565 1.0409412817179859 571.02460752770514 571.01641360308338 1.0408430477095365 