# For a description of the Tecplot format see the Tecplot User's guide.
#
Variables=x,y,z,s_u,s_v,s_w,s_p,mono_f_vel_u,mono_f_vel_v,mono_f_vel_w,const,u_nu,v_nu,w_nu,p_nu,x_nu,y_nu,z_nu,const,u_ref,v_ref,w_ref,vol_ref,x_ref,y_ref,z_ref,const,I1,I2,I3,J,p1,p2,p3
Zone f=fepoint, n=1339, e=6475, et=brick, c=black
-58.6807 -70.4719 176.335 -58.680651609906015 -70.471865597030458 176.33460111190178 -10.302766074352318 3.1267854493346129e-09 -3.7190157193264448e-08 8.5310581384596598e-08 -10.322652195191880 3.1408935912205505e-10 -2.1439856834337689e-11 8.3407054318751489e-09 8.5750308415988383e-06 3.0323247828967515e-14 -3.6758429989742358e-14 2.4980160117341054e-14 8.6059425203071402e-06 -58.668039002000000 -70.473359259200009 176.35421013599998 215.13583165143561 0.0000000000000000 0.0000000000000000 0.0000000000000000 0.0000000000000000 3.0021875561602971 3.0043762387841677 1.0021886827932340 1.0010750484214830 26.370509155024116 26.370507593138658 1.0010937455244289 
-64.976883481150296 -76.414016119287623 184.01068438539656 -64.976883481150281 -76.414016119287652 184.01068438539656 -10.539927164524112 -7.7732693261472980e-08 -2.2454958481121614e-07 2.4581130704614406e-07 -10.530313626074845 3.4266668712604203e-10 -9.6321336323645923e-12 5.8805657288107946e-09 8.5875776877858719e-06 9.4451604503290196e-14 -2.1751845723922482e-14 -6.1698352740412891e-14 8.6630983630767355e-06 -64.963123215600007 -76.414687385200040 184.02450960799996 253.42820447565578 0.0000000000000000 0.0000000000000000 0.0000000000000000 0.0000000000000000 3.0022385119185535 3.0044782206328127 1.0022397089029886 1.0010750484214814 26.981147429882796 26.981146857046379 1.0011192324407683 
-69.678209817553579 -71.582806329718608 177.21772868588855 -69.678209817553579 -71.582806329718593 177.21772868588849 -10.348642053653178 -8.7565720401948111e-08 -5.1287111593951970e-08 5.0401153088752570e-08 -10.427717680662989 3.6401631058405331e-10 -1.9243414153824464e-11 8.0576867123038909e-09 8.6164952781540791e-06 7.9250281028455106e-14 -4.7353224712548467e-15 2.3096948665215343e-14 8.6637814996261817e-06 -69.663592608799988 -71.584146237200002 177.23667228800005 218.29881668600640 0.0000000000000000 0.0000000000000000 0.0000000000000000 0.0000000000000000 3.0022710149234655 3.0045432499288629 1.0022722351989886 1.0010750484214832 26.769541942716220 26.769546050342623 1.0011354797018941 
-57.177343871825947 -87.727668872286841 171.64769821195702 -57.177343871825983 -87.727668872286827 171.64769821195688 -10.078407421742080 -1.3429954453887799e-07 1.6162927177660136e-07 5.2827174484563596e-07 0.0000000000000000 3.0726745496936764e-10 1.2841916766093142e-11 9.8428463990440934e-09 8.5238743003033786e-06 8.1020934490011037e-14 -1.4646271558670088e-13 -4.8400836406322260e-15 0.0000000000000000 -57.165005282198301 -87.726774323660578 171.67083873969227 259.76550921814646 0.0000000000000000 0.0000000000000000 0.0000000000000000 0.0000000000000000 3.0019417603553546 3.0038843144007354 1.0019425541167442 1.0009926461995149 25.042800416444276 25.042803577770396 1.0009708013306549 
-88.916468630936222 -83.378214960657374 117.04864022508664 -88.916468630936222 -83.378214960657317 117.04864022508670 -9.5163358254931527 -1.0066199689747101e-07 3.0949005244029691e-07 -1.2637056103519463e-07 0.0000000000000000 4.5133312061643177e-10 4.2071086198136598e-12 2.7341536923408682e-08 9.1623785246519453e-06 9.1537061734130881e-16 -1.5115389964065401e-13 1.0014673807775848e-13 0.0000000000000000 -88.898344731952406 -83.377922378373768 117.11292023788836 283.91631954144174 0.0000000000000000 0.0000000000000000 0.0000000000000000 0.0000000000000000 3.0019487628616446 3.0038981372730102 1.0019493744371930 1.0009980766282873 24.081660545840762 24.075262988157178 1.0009742105305000 
-97.615402301670301 -66.899712583075356 108.14916578554092 -97.615402301670301 -66.899712583075356 108.14916578554093 -10.032048142098848 -1.8770822144959150e-08 7.3345615318311243e-08 -5.5696514755773934e-07 -10.115973925812964 4.9082373625511377e-10 -2.8543533855951431e-11 3.0193776562326142e-08 9.3562049067696778e-06 -2.6912305501915913e-14 -3.1829504249675710e-14 2.4377231174393516e-13 9.3485175708447497e-06 -97.595692787999965 -66.901700632800015 108.22015140479995 322.25788568967050 0.0000000000000000 0.0000000000000000 0.0000000000000000 0.0000000000000000 3.0022372520883747 3.0044757492654237 1.0022384973776823 1.0010750484214812 26.081081059676229 26.076590278492972 1.0011186274220205 
-79.678972960263778 -67.529549290086962 108.54478728461076 -79.678972960263778 -67.529549290086990 108.54478728461073 -9.9020276893039902 -1.8681979624607067e-07 1.4305240857010273e-07 -2.6505701848554470e-07 0.0000000000000000 4.0941085808002259e-10 -2.7284606865518590e-11 3.0066978046194854e-08 9.3153649866543639e-06 1.1646909281475275e-13 -2.6789358034992220e-14 1.9493927804595777e-13 0.0000000000000000 -79.662532843379708 -67.531450170133141 108.61547480962874 295.38956150422752 0.0000000000000000 0.0000000000000000 0.0000000000000000 0.0000000000000000 3.0020394791036349 3.0040798689179855 1.0020403899270702 1.0010248059690388 25.114322219430832 25.119538200841209 1.0010196719898294 
-94.496928970012306 -81.839583183671365 108.55562886040543 -94.496928970012334 -81.839583183671323 108.55562886040541 -9.8847817077390800 -2.5018566334874886e-07 1.7545470709393773e-07 -4.0412888952950782e-07 0.0000000000000000 4.7666346260702430e-10 1.1496654322984412e-12 3.0063508016375806e-08 9.3739620801549579e-06 1.8496169006020752e-13 -2.6760930130593279e-14 2.6744109086970540e-13 0.0000000000000000 -94.477787882002133 -81.839503548705352 108.62630821647583 293.80807890400462 0.0000000000000000 0.0000000000000000 0.0000000000000000 0.0000000000000000 3.0020275112060215 3.0040558576532752 1.0020283465404800 1.0010205311088938 24.968910965121946 24.963831145272444 1.0010136558541813 
-47.305012849374016 -125.96979824004353 138.62760595670588 -47.305012849374009 -125.96979824004349 138.62760595670585 -7.5214519115072376 -5.4429287198361616e-08 1.7567961937973304e-07 7.4604848367643452e-07 0.0000000000000000 1.3799430225502414e-09 -6.8009208344836112e-10 2.4686942808050257e-08 8.3320295149880107e-06 3.4952689066594477e-14 -1.3639287211132673e-13 1.5883075799616297e-13 0.0000000000000000 -47.292355390977058 -125.96433165720771 138.67232254046354 244.31333887135355 0.0000000000000000 0.0000000000000000 0.0000000000000000 0.0000000000000000 3.0024406209001695 3.0048829369268866 1.0024423163854719 1.0012321259884118 22.513655021812234 22.513190023263824 1.0012204131722802 
-34.205912219113983 -140.44170418734632 139.16842175524462 -34.205912219113991 -140.44170418734623 139.16842175524468 -7.6007792915802153 2.8906058718000438e-07 -1.4644857209922144e-07 4.0306209336420096e-07 0.0000000000000000 7.2868864277434313e-10 -3.6563578373065545e-10 2.1852150260207202e-08 8.0194625329445020e-06 -1.8506867886518024e-13 -7.9494923808964818e-14 3.0182495859694056e-13 0.0000000000000000 -34.196989160350306 -140.43319657724166 139.21506628885933 210.16870282748488 0.0000000000000000 0.0000000000000000 0.0000000000000000 0.0000000000000000 3.0023729333383944 3.0047473701588250 1.0023744370914480 1.0011901243075600 22.420650758065349 22.424420892902617 1.0011865156724289 
-30.955788916251684 -127.64755548820131 142.68367846828929 -30.955788916251670 -127.64755548820133 142.68367846828923 -7.8585847308728809 1.9756407589469371e-07 8.1738595128821060e-08 6.4470097185342706e-07 0.0000000000000000 1.8824151829313626e-10 9.2165074183636606e-11 1.9125652339635483e-08 8.0924489074853942e-06 -9.1207759377157507e-14 -9.8843947628111147e-14 2.8096538632654744e-13 0.0000000000000000 -30.948229910445860 -127.64113600963313 142.72864290474456 229.21992526850030 0.0000000000000000 0.0000000000000000 0.0000000000000000 0.0000000000000000 3.0022966961374671 3.0045947251324598 1.0022980292169799 1.0011572987058333 22.587911287956182 22.588246833659010 1.0011483536889874 
-48.419028667291421 -130.91145317658749 146.81996584380357 -48.419028667291428 -130.91145317658754 146.81996584380352 -7.7985656078932202 1.3563945823822178e-07 4.3528930063836001e-07 1.0333065247461392e-07 0.0000000000000000 1.2776770322395860e-09 -7.3248755701481571e-10 2.1596986749665567e-08 8.0263579406878308e-06 -2.2976503197629604e-14 -4.0405874055491172e-13 4.2612884852023701e-13 0.0000000000000000 -48.406431667502837 -130.90513559487593 146.85896726379221 225.63426853136377 0.0000000000000000 0.0000000000000000 0.0000000000000000 0.0000000000000000 3.0024296557647485 3.0048609444076764 1.0024312889669948 1.0012075532825431 22.826879052191380 22.826679357305583 1.0012149059933362 
-53.021756176323606 -84.939063573028719 77.610201132272067 -53.021756176323606 -84.939063573028747 77.610201132272081 -9.8676008056572346 -1.5378474008449858e-07 9.7964583868503149e-07 -2.2773303419090536e-06 0.0000000000000000 -3.8977380570107401e-10 4.6121934425810705e-10 4.0294765717784096e-08 9.8725963953458841e-06 2.7990392545115522e-13 1.1838813419119087e-12 1.0442203521060396e-12 0.0000000000000000 -53.009977022357148 -84.940192361847963 77.707205907375524 356.07450292316213 0.0000000000000000 0.0000000000000000 0.0000000000000000 0.0000000000000000 3.0020486807321065 3.0040982421320828 1.0020495614774836 1.0010374177160677 24.509929971622988 24.509933035452072 1.0010242500621767 
-40.322519252520777 -85.652999422259725 67.386179548933100 -40.322519252520799 -85.652999422259697 67.386179548933100 -11.185887908560483 -9.6453359801047120e-08 3.4247850721442021e-07 -1.1654537138075862e-06 0.0000000000000000 -1.5230394634090091e-11 8.2552029329211567e-11 4.2994124270166665e-08 1.0119857114915905e-05 7.0825648880805535e-14 3.0542014009610003e-14 -1.3815490075284305e-13 0.0000000000000000 -40.313282635619565 -85.652866469445740 67.489144002613742 334.72004880612383 0.0000000000000000 0.0000000000000000 0.0000000000000000 0.0000000000000000 3.0020036777195274 3.0040083362942185 1.0020046587089650 1.0010265877004410 27.242244260645037 27.242243824937994 1.0010018254140542 
-42.939644997587621 -94.071379107527278 83.182262260211544 -42.939644997587621 -94.071379107527278 83.182262260211530 -9.1593948962102427 1.0442691195587417e-06 4.4978419852377942e-07 -1.2327562097659333e-06 0.0000000000000000 9.8919299520185022e-11 3.0851945807693423e-10 3.8324597976208735e-08 9.6902470091748400e-06 1.4343888780264933e-13 3.2992732943733917e-13 1.6282929255627377e-12 0.0000000000000000 -42.930125987095458 -94.071309017270835 83.274511392489799 283.94561953274422 0.0000000000000000 0.0000000000000000 0.0000000000000000 0.0000000000000000 3.0021164779879630 3.0042339755456933 1.0021174976808991 1.0010520167404531 23.793970590817594 23.793971162704221 1.0010581865585697 
-44.956446308803876 -98.972167918732282 67.914257842066576 -44.956446308803855 -98.972167918732325 67.914257842066547 -10.457903234041426 4.7755032408561554e-07 5.9678629276522151e-07 -1.6213215251428723e-06 0.0000000000000000 2.5179175107761798e-10 3.5182383048559807e-11 4.3088849821515389e-08 1.0037828335191710e-05 -7.2900725067697359e-13 -2.8489225562318859e-13 -1.1001620745553418e-12 0.0000000000000000 -44.946335306532468 -98.969717126470769 68.015559797458934 339.42980011114588 0.0000000000000000 0.0000000000000000 0.0000000000000000 0.0000000000000000 3.0021028311130200 3.0042068092935685 1.0021039783690073 1.0010478641256007 26.175739557063743 26.175739260176780 1.0010514330487055 
-35.680016467099243 -100.83496416254721 75.263402191902003 -35.680016467099229 -100.83496416254724 75.263402191902046 -9.9540206456229701 4.9321883956665323e-07 4.8909455135736430e-07 -1.0141127425611816e-06 0.0000000000000000 3.5515104819964458e-11 1.3790196200422228e-10 4.0506491909269950e-08 9.9581493842303057e-06 3.5072095621580255e-13 -4.2653973240068378e-13 4.4601073411540630e-13 0.0000000000000000 -35.672109309640206 -100.83293553867907 75.360366609178811 338.44965823895870 0.0000000000000000 0.0000000000000000 0.0000000000000000 0.0000000000000000 3.0019534816291138 3.0039078944627935 1.0019544129606894 1.0010176966327307 24.857158333877241 24.857161500159478 1.0009767282681603 
-48.986638672852898 -111.99633013406536 65.279856025871496 -48.986638672852898 -111.99633013406536 65.279856025871496 -9.9229219739215377 8.9904428661472571e-07 7.0725336315699174e-07 -1.1134877863816069e-06 -9.5505920355488030 2.7008708507539336e-10 6.1063135450845061e-11 4.3933168769605395e-08 9.8490386333554446e-06 -5.1243765351363963e-13 4.9939451926878860e-13 2.1028694295871651e-13 9.8923321220069435e-06 -48.975793059600008 -111.99207679200002 65.383142959360015 326.57209562220959 0.0000000000000000 0.0000000000000000 0.0000000000000000 0.0000000000000000 3.0021574139430465 3.0043158760498510 1.0021584622463726 1.0010663813108935 25.425622456793459 25.425620824841911 1.0010786457597052 
-25.246055111095838 -110.48591564061080 67.367942767013929 -25.246055111095842 -110.48591564061087 67.367942767013972 -10.597111553579621 1.7385307465156571e-07 3.6034019414255747e-07 -1.1224459719377608e-06 0.0000000000000000 1.6232204426078201e-10 5.8066855143645846e-11 4.3263940235904741e-08 9.9847209694997973e-06 -6.3616645352540426e-14 -3.1347298178255238e-13 8.6615579463585592e-14 0.0000000000000000 -25.239536857883341 -110.48187134057846 67.469656361758609 349.35568362690350 0.0000000000000000 0.0000000000000000 0.0000000000000000 0.0000000000000000 3.0020718571404541 3.0041447414159284 1.0020728844229834 1.0010438018176675 26.487342458934194 26.487344328880685 1.0010359038688321 
-44.085805052243288 -111.27275476345299 76.357461888794447 -44.085805052243288 -111.27275476345301 76.357461888794447 -9.1639708828075879 5.0915005186530080e-07 -3.6228045549197383e-07 -7.5310931622004799e-07 0.0000000000000000 2.4784047427187095e-10 5.9634273213982070e-11 4.0382852589671003e-08 9.7254772001607166e-06 -2.3931042626747911e-13 -1.9630262737079966e-13 7.1665679144799025e-13 0.0000000000000000 -44.075852747763513 -111.26860156453857 76.452402029906395 268.59635586333832 0.0000000000000000 0.0000000000000000 0.0000000000000000 0.0000000000000000 3.0022206044505473 3.0044424832696435 1.0022218790352821 1.0010478238738540 24.336978130407221 24.336982588373530 1.0011103229259002 
-58.269946912804876 -106.62751180698120 105.26544412529827 -58.269946912804912 -106.62751180698116 105.26544412529833 -6.9004118945788013 1.8297085818885613e-07 1.3162807150462230e-06 -2.9722404785301790e-07 0.0000000000000000 1.1178105889659684e-09 1.2506367140783422e-09 3.1914734051439847e-08 9.5283164855563332e-06 -3.2284968526819936e-13 -4.9458150634672082e-13 -7.0070795539768217e-14 0.0000000000000000 -58.254647241440821 -106.62760994408018 105.33920711112118 241.62621693813244 0.0000000000000000 0.0000000000000000 0.0000000000000000 0.0000000000000000 3.0026705710353729 3.0053430269182830 1.0026724562833662 1.0013175393338771 22.100223262610179 22.100254718257123 1.0013353362416912 
-64.386828264196623 -90.088003935919190 96.606587703164777 -64.386828264196609 -90.088003935919218 96.606587703164735 -8.4762786632816098 -5.1597416382366574e-07 5.0356204276917208e-07 5.9459244721996484e-07 0.0000000000000000 3.0550777937088111e-10 2.3453882427496563e-10 3.3886851650795279e-08 9.2120000839308812e-06 1.7443737378759618e-13 -1.0553766399040846e-13 -8.8760502797915282e-13 0.0000000000000000 -64.370648572599308 -90.090304358695661 96.688480747766732 239.98138923263960 0.0000000000000000 0.0000000000000000 0.0000000000000000 0.0000000000000000 3.0022851206055425 3.0045713856048177 1.0022862651022093 1.0010947644203598 23.183699615741663 23.183707727737552 1.0011424727118139 
-75.932678645959342 -99.702161246886504 101.24832489432607 -75.932678645959342 -99.702161246886547 101.24832489432615 -8.1170128057088959 -9.6004893131817613e-07 1.0540331367527935e-06 -2.3737749487847586e-07 0.0000000000000000 2.8247294862688718e-10 7.4475769973509191e-10 3.2694292770155915e-08 9.4467908936009400e-06 8.7321075867643618e-13 -7.4022522554304260e-13 7.8023883561056764e-14 0.0000000000000000 -75.913673002404863 -99.702254402691466 101.32606574872912 288.13617662859207 0.0000000000000000 0.0000000000000000 0.0000000000000000 0.0000000000000000 3.0023952161687495 3.0047918074332536 1.0023965914681190 1.0011622487684617 23.066641710845825 23.066667865895742 1.0011975818911412 
-55.179010412723819 -93.584550547135024 103.25014414590038 -55.179010412723819 -93.584550547135052 103.25014414590034 -8.1323893369062308 -7.7670712824762289e-08 5.7208384075775031e-07 1.8898434181164556e-07 0.0000000000000000 9.8630222756481047e-10 8.3601114593110192e-10 3.2576932058831176e-08 9.2637989154761288e-06 2.7576219061719488e-13 -2.1303573254191069e-13 1.5165848591034596e-13 0.0000000000000000 -55.164710769962618 -93.586508083202432 103.32606452766413 222.68531933077850 0.0000000000000000 0.0000000000000000 0.0000000000000000 0.0000000000000000 3.0023442049706031 3.0046895490196883 1.0023453441748356 1.0011648113262277 23.325889109464132 23.325898768825944 1.0011719868757967 
-45.773037670254986 -175.90890415408978 155.61393336925121 -45.773037670255000 -175.90890415408975 155.61393336925124 -8.0981189210750077 -3.9621792895671819e-07 -5.8682344216006207e-07 1.0739578105206350e-06 0.0000000000000000 2.5549790104786863e-10 1.8805209126004918e-10 1.4981575369166219e-08 7.6064256824710777e-06 2.7389531728196711e-13 4.1584394562685946e-13 -4.6459986931264971e-13 0.0000000000000000 -45.762777822239421 -175.89580528354742 155.64915507299250 248.91339099022119 0.0000000000000000 0.0000000000000000 0.0000000000000000 0.0000000000000000 3.0023080620636611 3.0046173370519251 1.0023092751643679 1.0011225845004135 22.542664767260099 22.542752707512360 1.0011539715189210 
-51.446789493524719 -185.57724838965555 168.12792129871039 -51.446789493524726 -185.57724838965555 168.12792129871039 -8.4422706737455968 9.5760164031266065e-09 -1.0457673407662565e-08 1.2704925921705140e-08 -8.5443068739846577 2.8125106106904890e-10 2.0727044733326316e-10 1.0970903768781071e-08 7.6539327042159593e-06 -1.3768759491508564e-14 5.3053579953667300e-14 4.1569613361681650e-14 7.7200819552692200e-06 -51.435495451599998 -185.56281141599996 168.15371392000000 294.81703600272857 0.0000000000000000 0.0000000000000000 0.0000000000000000 0.0000000000000000 3.0021291143847812 3.0042592658540848 1.0021301516148042 1.0010718386124562 22.849393846916144 22.849388334131504 1.0010645095355193 
-42.682775310364477 -171.19420232316676 166.24228835297390 -42.682775310364477 -171.19420232316676 166.24228835297393 -8.3815490006824476 5.3079627470341441e-08 -5.6611855308430393e-08 3.4817562418487870e-07 0.0000000000000000 3.1973083319363156e-10 -2.8056752359297134e-10 1.2062885899786971e-08 7.6572004617696370e-06 -1.8117895438688487e-14 -5.7952303211786109e-14 5.3117787509210384e-15 0.0000000000000000 -42.672974891599750 -171.18173466392949 166.26923354793541 271.88244999766295 0.0000000000000000 0.0000000000000000 0.0000000000000000 0.0000000000000000 3.0021279520411550 3.0042569703930435 1.0021290185081861 1.0010740646414467 22.668544578618658 22.668536299047233 1.0010639433559294 
-59.395477825314686 -178.03077593561181 157.71697896854477 -59.395477825314643 -178.03077593561190 157.71697896854482 -8.5307925028074933 -2.9503180092277541e-07 -8.4689235012455676e-08 3.1173823437384261e-08 0.0000000000000000 3.1733118606783184e-10 1.9228052483555302e-10 1.4307547036018775e-08 7.7810347791295213e-06 2.1624516009834803e-13 2.2347849663854415e-14 6.3535381802592517e-14 0.0000000000000000 -59.382734921100123 -178.01738339707751 157.75061606229067 243.94852352315442 0.0000000000000000 0.0000000000000000 0.0000000000000000 0.0000000000000000 3.0021088746546147 3.0042187469179376 1.0021098723947413 1.0010720962767889 22.885344802565733 22.885322783884412 1.0010543807348879 
-30.668046115436411 -102.72694621328569 95.246076348906755 -30.668046115436407 -102.72694621328567 95.246076348906783 -7.5888388033969960 3.6328847194605679e-07 6.7338106577242746e-07 -1.7908586832245408e-06 0.0000000000000000 3.1108351132360980e-10 5.3177662692124377e-10 3.4316920771091675e-08 9.3672581373547316e-06 -8.3140631854171687e-13 7.2818171984239753e-13 -9.5792928528413799e-14 0.0000000000000000 -30.660097366607719 -102.72526557899965 95.328291536857705 204.58703120518373 0.0000000000000000 0.0000000000000000 0.0000000000000000 0.0000000000000000 3.0023623561925352 3.0047259395425798 1.0023635834756386 1.0011646191766992 22.104150356022448 22.104161085201721 1.0011810934638417 
-18.809566579684976 -110.91005413230070 93.271841211934401 -18.809566579684986 -110.91005413230064 93.271841211934358 -8.3671573647824271 5.7770691459726366e-07 1.2916359476938741e-07 -1.4862049905666800e-06 0.0000000000000000 1.3310675131550376e-10 5.8902913796510248e-11 3.4961881612005641e-08 9.4332141913678902e-06 3.3549677428590321e-13 -7.3947006535721183e-14 -6.0959051651898711e-14 0.0000000000000000 -18.804221549666405 -110.90595113131390 93.354036648627854 267.24800799435923 0.0000000000000000 0.0000000000000000 0.0000000000000000 0.0000000000000000 3.0021612727722551 3.0043235788341334 1.0021623061974874 1.0010891427037591 23.057689520940801 23.057704616908151 1.0010805712954669 
-33.823735564078461 -104.71309520029480 84.917353747058783 -33.823735564078454 -104.71309520029487 84.917353747058783 -8.7673670540569510 4.9340683939276297e-07 4.6908771249321709e-08 -1.3046981296249685e-06 0.0000000000000000 6.2435765659118719e-11 4.7161407860492533e-10 3.7334018815717492e-08 9.5144726597800159e-06 -5.1713365588641467e-13 5.7771112183128321e-14 7.4183882558250105e-14 0.0000000000000000 -33.815892125380543 -104.71065599625929 85.007910193808286 270.69679205096202 0.0000000000000000 0.0000000000000000 0.0000000000000000 0.0000000000000000 3.0020389507621421 3.0040789321506467 1.0020399815337304 1.0010524215995618 23.126495840013828 23.126482086840728 1.0010194669196479 
-18.926550075686350 -100.38232710244471 95.317409865713827 -18.926550075686350 -100.38232710244466 95.317409865713842 -8.0625604449677564 1.7382557732800627e-07 4.3061493487929437e-08 -4.5700202267416099e-07 0.0000000000000000 1.3363753549947011e-10 3.7992102519535109e-11 3.4306285812135684e-08 9.1809574764042856e-06 2.6771013801193908e-13 3.0017370487197242e-13 1.0985618879667263e-13 0.0000000000000000 -18.921183722278450 -100.37968114352928 95.398064000337470 185.31956687594098 0.0000000000000000 0.0000000000000000 0.0000000000000000 0.0000000000000000 3.0021910949068480 3.0043831892927439 1.0021920945075011 1.0010899323094398 22.513824644282003 22.513853568253698 1.0010954506473342 
-31.131670865506731 -117.98387146333125 173.19126962369077 -31.131670865506742 -117.98387146333121 173.19126962369077 -9.1187939429249418 5.6183702961139286e-07 5.2841026356150858e-07 4.5496197533104886e-07 0.0000000000000000 3.0673391966190965e-10 -3.9142573833518786e-11 9.8238243189469403e-09 8.1372136824755718e-06 -2.9653600220882622e-13 -3.3548074975302028e-13 -1.4817842303875578e-13 0.0000000000000000 -31.124431206993112 -117.97934695114738 173.21200361760444 258.17126679857051 0.0000000000000000 0.0000000000000000 0.0000000000000000 0.0000000000000000 3.0021312954138377 3.0042635849633417 1.0021322896669391 1.0010747034878833 23.997610966401894 23.997610202556526 1.0010655776095130 
-30.649590211382851 -133.14137060349006 164.78061627348939 -30.649590211382836 -133.14137060349006 164.78061627348953 -8.5105345867676920 5.7753399340834986e-07 -5.8473692801459072e-09 1.7913560521795036e-07 0.0000000000000000 4.1672844222336062e-10 -6.5366939367063077e-11 1.2782020582435624e-08 7.8493821710970374e-06 -3.2752759120117077e-13 -7.3218407933550054e-14 6.6317169251136002e-14 0.0000000000000000 -30.642131568542830 -133.13454878399213 164.80820313575899 262.24283076768535 0.0000000000000000 0.0000000000000000 0.0000000000000000 0.0000000000000000 3.0021921837103638 3.0043855233789474 1.0021933398444318 1.0011106380455168 23.192087351573750 23.192081256054589 1.0010960682106107 
-42.686793063549118 -120.10984550191662 163.67745304593723 -42.686793063549104 -120.10984550191657 163.67745304593711 -8.2076996844238881 9.1678467410035778e-07 6.3598135670132544e-07 5.3565764200179877e-07 0.0000000000000000 6.1366797607995759e-10 -3.3331720450846933e-10 1.4277177529150554e-08 7.8624894811154082e-06 -6.4967527440229063e-13 -5.0912082675324882e-13 -5.6129179514160663e-13 0.0000000000000000 -42.676694985445003 -120.10595080876966 163.70375490782192 268.28772502602959 0.0000000000000000 0.0000000000000000 0.0000000000000000 0.0000000000000000 3.0024507390412314 3.0049030199735776 1.0024522812084049 1.0011802257526066 23.194941445560289 23.194945917833010 1.0012253900377457 
-23.753569535933536 -114.23853112131364 161.78219749353573 -23.753569535933551 -114.23853112131371 161.78219749353585 -8.9629060323845806 2.8207479013146406e-07 1.9976548651752914e-07 4.8645757891210994e-07 0.0000000000000000 1.5554730290259777e-10 6.5526303133500706e-11 1.3004682525297184e-08 8.0929706490870191e-06 -2.1496056707809956e-13 -1.9241468928744162e-13 4.7374328630666445e-14 0.0000000000000000 -23.747323328369049 -114.23396745764113 161.81277151251504 321.01516800445251 0.0000000000000000 0.0000000000000000 0.0000000000000000 0.0000000000000000 3.0021043979542230 3.0042098027637238 1.0021054049383447 1.0010732343764490 23.739225809129223 23.739231847074048 1.0010521501235556 
-6.4665431705413470 -104.99083654265772 109.26135186571486 -6.4665431705413461 -104.99083654265770 109.26135186571490 -6.9505630043994691 4.4310519787631901e-09 4.9538744216334308e-08 -7.7745786624223460e-07 -6.6277674959051005 7.7078629069637903e-11 4.7148687731812799e-11 2.9837329412751856e-08 8.2455560615158668e-06 -2.3148672395444089e-14 4.3566649210144428e-15 6.9089526696571771e-13 7.9862266944984877e-06 -6.4634479885999987 -104.98755276399999 109.33149947120000 327.67017865987640 0.0000000000000000 0.0000000000000000 0.0000000000000000 0.0000000000000000 3.0021513961396167 3.0043038920397871 1.0021524960627362 1.0010897376385623 20.083881085239348 20.083672454869035 1.0010756706012882 
-11.810907770167576 -97.119074862963970 101.36158338432409 -11.810907770167576 -97.119074862963984 101.36158338432411 -7.7918502141117383 -1.2402403574821387e-07 2.8621860808016682e-08 -8.9721526430297369e-07 -7.6294341818201392 1.0133767869985322e-10 3.1503567116120124e-11 3.2369159769229938e-08 8.8551316012130329e-06 7.8448901285894891e-14 -1.0271316021827043e-13 4.5964319349230625e-13 8.7983076825688926e-06 -11.806838433999999 -97.116880539599975 101.43768333439998 212.90238721710071 0.0000000000000000 0.0000000000000000 0.0000000000000000 0.0000000000000000 3.0021266712015549 3.0042543710057030 1.0021276999524880 1.0010750484214814 21.603397234974043 21.603417275828015 1.0010632852111487 
-15.854411012824158 -110.36413023653866 103.02257826064557 -15.854411012824151 -110.36413023653863 103.02257826064560 -7.3865175138764645 4.2286982221365217e-07 3.7123535415590988e-08 -1.6661015314163160e-06 0.0000000000000000 1.1969326614916231e-10 5.7821473303798505e-11 3.1836821345887500e-08 8.6656217154789198e-06 -4.1442720055065837e-13 1.8532942940147360e-14 1.0889107917409224e-12 0.0000000000000000 -15.849604639409371 -110.36010279166017 103.09742667861765 236.22178992679409 0.0000000000000000 0.0000000000000000 0.0000000000000000 0.0000000000000000 3.0021392591997587 3.0042796091626012 1.0021403501203421 1.0010929001152866 21.099920877575126 21.099713916853030 1.0010696035317002 
-23.755825273123737 -99.536741389538790 102.20638353004396 -23.755825273123730 -99.536741389538761 102.20638353004396 -7.4899965536865869 4.5228126437688112e-07 8.0690807724342438e-07 -1.1137049611259135e-06 0.0000000000000000 1.5555843635786659e-10 3.6303335337883880e-11 3.2098413232928280e-08 8.8355703600698825e-06 1.5120206276277692e-13 -5.4352120774728504e-13 8.3678437833875379e-13 0.0000000000000000 -23.749578654390465 -99.534212460059550 102.28184693721489 211.57004919854941 0.0000000000000000 0.0000000000000000 0.0000000000000000 0.0000000000000000 3.0022340583227862 3.0044693437086578 1.0022352855501362 1.0011221835050084 21.531391367984956 21.531503444749891 1.0011170177246465 
-54.101760000759384 -108.37195024236034 113.77793702443229 -54.101760000759413 -108.37195024236034 113.77793702443233 -5.8649949943935971 6.2058377250394854e-07 1.9525071650206638e-06 -1.3043915717378154e-06 0.0000000000000000 2.1316597884907504e-09 1.1203732866226940e-09 3.0330980345240381e-08 1.0143030983417854e-05 7.4385200921824893e-13 9.1146659764124582e-13 -2.3910522990135089e-12 0.0000000000000000 -54.087034329299712 -108.37170302860723 113.84396407125838 191.01171882188567 0.0000000000000000 0.0000000000000000 0.0000000000000000 0.0000000000000000 3.0030049646365899 3.0060123006787340 1.0030073366055667 1.0014448841572277 20.896347566855056 20.896158415657155 1.0015025398095216 
-41.702850156304514 -107.74941958192451 110.90793611907441 -41.702850156304514 -107.74941958192450 110.90793611907434 -6.4346622607509554 -3.1775470234001925e-07 1.2386607756840033e-06 8.0380015466758337e-08 0.0000000000000000 2.2988503077715028e-09 2.8398868706887891e-10 3.0702763215946114e-08 8.7215111245763436e-06 9.9170334185502112e-13 -1.4761991750351582e-12 -6.3298857562632395e-13 0.0000000000000000 -41.690910404717421 -107.74885629568415 110.97670241767709 270.34727434602189 0.0000000000000000 0.0000000000000000 0.0000000000000000 0.0000000000000000 3.0027018172870847 3.0054053375188983 1.0027035205147223 1.0013396562435928 21.490248530869838 21.490089207367916 1.0013508482922555 