# For a description of the Tecplot format see the Tecplot User's guide.
#
Variables=x,y,z,s_u,s_v,s_w,s_p,mono_f_vel_u,mono_f_vel_v,mono_f_vel_w,const,u_nu,v_nu,w_nu,p_nu,x_nu,y_nu,z_nu,const,u_ref,v_ref,w_ref,vol_ref,x_ref,y_ref,z_ref,const,I1,I2,I3,J,p1,p2,p3
Zone f=fepoint, n=1339, e=6475, et=brick, c=black
-60.0936 -70.3054 173.986 -60.093604135812456 -70.305361001056824 173.98622111264265 -200.74678709264279 7.0501937569925853e-07 5.8330534345516892e-07 1.2499374078142167e-06 -204.23413519486374 7.8421335120149038e-08 -3.0768008141279775e-09 3.7169146271054381e-05 0.0046170433645458869 -7.9847278197697863e-12 6.6205730052241362e-14 -4.4759730557392555e-11 0.0046583920596544185 -58.668039002000000 -70.473359259200009 176.35421013599998 215.13583165143561 0.0000000000000000 0.0000000000000000 0.0000000000000000 0.0000000000000000 3.2648876881801594 3.5452621394957164 1.2806323893677585 1.1308780311059305 1794.6812490501177 1794.6812462125783 1.1316524000884221 
-66.518404640877606 -76.339187378350573 182.35497341861907 -66.518404640877620 -76.339187378350545 182.35497341861904 -211.94180767250029 -1.4585300057841460e-05 -1.0867481261390104e-05 1.1064300106588749e-05 -213.01755346391334 8.5557119527956957e-08 -1.3827501366137087e-09 2.6205879429141987e-05 0.0048103300226095321 3.1311245230849842e-10 1.4645380395736356e-10 -3.0381135790718995e-10 0.0049325464422625047 -64.963123215600007 -76.414687385200040 184.02450960799996 253.42820447565578 0.0000000000000000 0.0000000000000000 0.0000000000000000 0.0000000000000000 3.2667361984654453 3.5492799213812920 1.2828119553470354 1.1308780311059288 1821.8220697719041 1821.8220657499905 1.1326183966383909 
-71.315731746721738 -71.433441394072119 174.94903973484199 -71.315731746721752 -71.433441394072119 174.94903973484199 -204.88968980324725 -7.3460082559854742e-06 -1.4390861271179945e-06 -5.9839716963168918e-07 -211.82207804386294 9.0885324516287724e-08 -2.7600861596255295e-09 3.5907830724823953e-05 0.0046633518719808387 1.8994982410282416e-10 7.9854230431270051e-11 -3.1378143984472024e-11 0.0047365386150000684 -69.663592608799988 -71.584146237200002 177.23667228800005 218.29881668600640 0.0000000000000000 0.0000000000000000 0.0000000000000000 0.0000000000000000 3.2677628132792624 3.5514000357967102 1.2839068438207097 1.1308780311059305 1815.1756256797019 1815.1756400690899 1.1331038006138630 
-58.559598954237657 -87.827387845318455 168.87638474762602 -58.559598954237629 -87.827387845318412 168.87638474762596 -181.93560719794860 -8.9508191418272537e-06 1.6489244582053928e-05 3.4520153714610093e-05 0.0000000000000000 7.6717566882544830e-08 1.8426935533000233e-09 4.3863154854051345e-05 0.0043620674048604610 1.6507303531751520e-10 -4.8819010903395181e-10 -3.6159203937805952e-10 0.0000000000000000 -57.165005282198301 -87.726774323660578 171.67083873969227 259.76550921814646 0.0000000000000000 0.0000000000000000 0.0000000000000000 0.0000000000000000 3.2560906342422844 3.5261498458035909 1.2702668686077494 1.1280730991560730 1719.7726139190199 1719.7726173411047 1.1270581767498635 
-90.946834518730697 -83.410830297590053 109.35045516196004 -90.946834518730668 -83.410830297590095 109.35045516196003 -146.65628120320517 7.3334141022931298e-06 2.7384990177382484e-05 -1.4227613796472336e-05 0.0000000000000000 1.1268885261039863e-07 6.0269567114801248e-10 0.00012184355462352414 0.0040799187023696278 -1.5449794839930225e-11 -6.7438654129355226e-10 1.3798146434604570e-10 0.0000000000000000 -88.898344731952406 -83.377922378373768 117.11292023788836 283.91631954144174 0.0000000000000000 0.0000000000000000 0.0000000000000000 0.0000000000000000 3.2581300029999154 3.5299486692349507 1.2720185806457343 1.1286666000676868 1659.1837501193124 1659.2083836167435 1.1278370398937978 
-99.823399833377465 -66.678096595922909 99.647916173737485 -99.823399833377479 -66.678096595922895 99.647916173737485 -192.11129857561176 4.5285545449920793e-06 1.5337446480060537e-05 -6.6928747251724968e-05 -201.35385861567150 1.2254771833419831e-07 -4.0951981805648074e-09 0.00013455411411911200 0.0045497753272002936 -2.4899696100667805e-10 -1.5571291348005000e-10 2.6387401432009247e-10 0.0045610576570342971 -97.595692787999965 -66.901700632800015 108.22015140479995 322.25788568967050 0.0000000000000000 0.0000000000000000 0.0000000000000000 0.0000000000000000 3.2658671335751137 3.5475950856054648 1.2819979132164467 1.1308780311059288 1782.3420875472291 1782.3826937831475 1.1322572809389981 
-81.520709804117118 -67.317650461466997 100.07923748887575 -81.520709804117118 -67.317650461467039 100.07923748887576 -190.22872026662480 -1.2059041067477849e-05 1.5917112271933883e-05 -2.8201335225939181e-05 0.0000000000000000 1.0221961513345867e-07 -3.9156415887475751e-09 0.00013398907281825245 0.0045159555288111081 2.7744136327507071e-10 -3.8427542801264057e-10 4.8637285865653968e-11 0.0000000000000000 -79.662532843379708 -67.531450170133141 108.61547480962874 295.38956150422752 0.0000000000000000 0.0000000000000000 0.0000000000000000 0.0000000000000000 3.2598018387496395 3.5341391623404905 1.2745653066809519 1.1290961254194440 1750.8116838286876 1750.8083549327496 1.1289629322143748 
-96.641247484799976 -81.848460417166024 100.09105737920255 -96.641247484799976 -81.848460417166038 100.09105737920255 -176.81930191483082 -1.8076552850328611e-05 2.3522648804148745e-05 -4.9550255587841539e-05 0.0000000000000000 1.1901342214515331e-07 1.6403922664665060e-10 0.00013397358847555552 0.0043366365563991737 4.8380366257724094e-10 -7.0340977804564633e-10 -7.2865043660305872e-11 0.0000000000000000 -94.477787882002133 -81.839503548705352 108.62630821647583 293.80807890400462 0.0000000000000000 0.0000000000000000 0.0000000000000000 0.0000000000000000 3.2602662006258591 3.5348612304129428 1.2748163968592250 1.1291576463702808 1716.8199933619569 1716.7533432482151 1.1290743127036125 
-48.535702087352696 -126.64281214812115 132.90573198471660 -48.535702087352711 -126.64281214812124 132.90573198471660 -60.808996311006162 9.0444315666063330e-06 5.1797364488554624e-06 1.5727781775789284e-05 0.0000000000000000 2.4418164092863126e-06 -1.0208668005162042e-06 8.9551978649554973e-05 0.0026048011092535029 -1.1420782819425297e-10 -1.9324139909599882e-10 -2.2764795246838044e-10 0.0000000000000000 -47.292355390977058 -125.96433165720771 138.67232254046354 244.31333887135355 0.0000000000000000 0.0000000000000000 0.0000000000000000 0.0000000000000000 3.2717154033426072 3.5606398733432192 1.2892374195590128 1.1357955467650549 1588.4928084060250 1588.4927890331037 1.1354456381996674 
-35.139369890830153 -141.36104187480998 133.46863482374906 -35.139369890830153 -141.36104187480990 133.46863482374908 -59.438637030600326 1.5449734669846067e-05 3.5352382644115233e-06 8.6620911665353578e-06 0.0000000000000000 9.9304951590298668e-07 1.6360377287995509e-07 8.9994405015425650e-05 0.0024859077059915108 -3.9741201553722000e-10 -1.2137842449388431e-10 5.7702604956953724e-11 0.0000000000000000 -34.196989160350306 -140.43319657724166 139.21506628885933 210.16870282748488 0.0000000000000000 0.0000000000000000 0.0000000000000000 0.0000000000000000 3.2700106057569660 3.5568705806209953 1.2871578760574027 1.1346310241854307 1578.2137092722189 1578.2136921677377 1.1345307317315088 
-31.802601599743184 -128.36316086881683 137.29873005266759 -31.802601599743184 -128.36316086881686 137.29873005266754 -75.764046908004445 1.2267460110126155e-05 3.5568602701046554e-06 2.5064334340949799e-05 0.0000000000000000 4.6999583919182797e-08 1.3223523609440234e-08 8.5230642159928038e-05 0.0027203179508617148 -2.8004338237619802e-10 -1.6197717333066324e-10 -1.1969035380750578e-10 0.0000000000000000 -30.948229910445860 -127.64113600963313 142.72864290474456 229.21992526850030 0.0000000000000000 0.0000000000000000 0.0000000000000000 0.0000000000000000 3.2664823896955264 3.5490582854607458 1.2828511686028821 1.1331808258786298 1590.4203207655087 1590.4203230998094 1.1326299519857246 
-49.671404353145526 -131.65924979252847 141.82838052996783 -49.671404353145519 -131.65924979252847 141.82838052996792 -58.641758879855601 1.5745648290715889e-05 3.4183400840363100e-05 -1.5027643691230682e-05 0.0000000000000000 2.3276115095154891e-06 -1.0310185357371653e-06 7.8332961949513272e-05 0.0025569722960826660 -3.2192531467641373e-10 -8.7275013412043238e-10 2.1999021388143050e-10 0.0000000000000000 -48.406431667502837 -130.90513559487593 146.85896726379221 225.63426853136377 0.0000000000000000 0.0000000000000000 0.0000000000000000 0.0000000000000000 3.2738629112738189 3.5651543096436176 1.2916076247348938 1.1362085157134909 1586.8624763741454 1586.8626893098985 1.1364890776210641 
-54.316082373071026 -84.924276519151320 66.241349557872226 -54.316082373070998 -84.924276519151334 66.241349557872184 -171.10676907686067 -7.2204499521904184e-06 0.00011991656148850658 -0.00015685676238875028 0.0000000000000000 -3.2600676529053746e-08 -2.7060315971745411e-06 0.00018120170157674882 0.0032860770431892639 4.3605351704174842e-10 -4.6890197809374577e-09 -1.0314606051502207e-09 0.0000000000000000 -53.009977022357148 -84.940192361847963 77.707205907375524 356.07450292316213 0.0000000000000000 0.0000000000000000 0.0000000000000000 0.0000000000000000 3.2655418759722368 3.5465472627509929 1.2812530882732025 1.1312915972536595 1688.3736776218768 1688.4959756795879 1.1319060630149023 
-41.350662455281970 -85.697122435630064 55.147376259324567 -41.350662455281970 -85.697122435630078 55.147376259324567 -295.23010903756779 1.0984013640267376e-05 3.1478429234232507e-05 -0.00010526900124279387 0.0000000000000000 -5.1976114275670837e-07 -7.5912383793760166e-07 0.00019449648474725658 0.0048529361675174630 -1.2585842681764016e-09 -1.0867110618308305e-09 1.6075137665425933e-09 0.0000000000000000 -40.313282635619565 -85.652866469445740 67.489144002613742 334.72004880612383 0.0000000000000000 0.0000000000000000 0.0000000000000000 0.0000000000000000 3.2570950339776021 3.5290251926385712 1.2721724999013866 1.1290067299195914 1921.1379303321887 1919.7620232741444 1.1279004916076583 
-43.996138147087784 -94.225668155707211 72.348932601644236 -43.996138147087784 -94.225668155707211 72.348932601644250 -135.96739443056160 0.00011403694610820589 1.5140852118140838e-05 -6.2336294122827094e-05 0.0000000000000000 -1.2174775389356496e-06 -1.2848088337194365e-06 0.00017244765055130076 0.0032440538318113535 -3.7113144616617067e-09 5.9488118583283111e-10 -8.5102468293816393e-10 0.0000000000000000 -42.930125987095458 -94.071309017270835 83.274511392489799 283.94561953274422 0.0000000000000000 0.0000000000000000 0.0000000000000000 0.0000000000000000 3.2678016416590858 3.5516207397502773 1.2840888110757194 1.1315330337171630 1654.7181720168642 1654.8429446013911 1.1331728431549803 
-46.089151480114232 -99.245367698195736 55.782318754365434 -46.089151480114218 -99.245367698195750 55.782318754365413 -215.38165459720796 0.00012199715692587856 4.8873949445569322e-05 -0.00016672366537375923 0.0000000000000000 6.2867115874221113e-08 5.0484003644157838e-09 0.00019201910201616099 0.0040054179469929032 -3.8636236401932716e-09 5.0530513248722437e-10 1.0900142217049783e-09 0.0000000000000000 -44.946335306532468 -98.969717126470769 68.015559797458934 339.42980011114588 0.0000000000000000 0.0000000000000000 0.0000000000000000 0.0000000000000000 3.2645905797788783 3.5454040201490549 1.2811008346503947 1.1309712738599353 1771.6682247835708 1771.3229834598390 1.1318511586708164 
-36.584829957388003 -101.12178847860925 63.747744844277022 -36.584829957388017 -101.12178847860925 63.747744844277051 -212.51651149720038 7.3500813904092788e-05 3.1086472767340630e-05 -7.0505031879251575e-05 0.0000000000000000 -1.3275767493255061e-06 -2.8764743896903543e-07 0.00018284243367564938 0.0043292117035357040 -1.6910318591568727e-09 2.0544073095837288e-11 3.5865163868415454e-10 0.0000000000000000 -35.672109309640206 -100.83293553867907 75.360366609178811 338.44965823895870 0.0000000000000000 0.0000000000000000 0.0000000000000000 0.0000000000000000 3.2544684162186570 3.5233483667984009 1.2691134952872039 1.1288136343719775 1766.9318030948295 1767.0160232778942 1.1265474662364534 
-50.201640102763193 -112.47046747018494 52.910195630027125 -50.201640102763193 -112.47046747018497 52.910195630027140 -184.53238248866265 0.00014249129048412589 1.4540594593449578e-05 -9.2166072260598179e-05 -129.28941401518159 6.7434698630686198e-08 8.7614926425061429e-09 0.00019578165240119458 0.0044075991432713842 -1.4373963111516159e-09 1.1882897962878239e-09 9.9901512764820221e-10 0.0047978794201928871 -48.975793059600008 -111.99207679200002 65.383142959360015 326.57209562220959 0.0000000000000000 0.0000000000000000 0.0000000000000000 0.0000000000000000 3.2630708117256382 3.5411019919466677 1.2782690066740037 1.1308856820657698 1730.0147515886954 1729.7537513826794 1.1305991736809839 
-25.976275412060509 -110.93675021123693 55.186705681755434 -25.976275412060517 -110.93675021123686 55.186705681755470 -285.50534913942568 2.5787619708527457e-05 1.4615090174373781e-05 -8.2556621918340164e-05 0.0000000000000000 4.0528502470715821e-08 8.3308799858627952e-09 0.00019279936946858808 0.0052723168627489990 -6.9414180683501511e-10 -4.7690334825779396e-10 3.6681534986005355e-10 0.0000000000000000 -25.239536857883341 -110.48187134057846 67.469656361758609 349.35568362690350 0.0000000000000000 0.0000000000000000 0.0000000000000000 0.0000000000000000 3.2594198957463227 3.5337657760263319 1.2745903181237732 1.1294944767561470 1919.5705144028395 1919.6047909596887 1.1289757827248368 
-45.200731787309060 -111.73572873530979 64.987414741255790 -45.200731787309067 -111.73572873530976 64.987414741255819 -149.35983344449195 7.1023063481073399e-05 -6.7122639993930883e-05 -4.1006610482360092e-05 0.0000000000000000 6.1880377516532192e-08 8.5552112061293412e-09 0.00017996020482513583 0.0040120348217625940 -9.9544538031930475e-10 4.0413355897579481e-10 5.9379203871795707e-10 0.0000000000000000 -44.075852747763513 -111.26860156453857 76.452402029906395 268.59635586333832 0.0000000000000000 0.0000000000000000 0.0000000000000000 0.0000000000000000 3.2672023823478757 3.5509097172452138 1.2839987526086174 1.1311322956550085 1702.3440502676553 1702.3576224052470 1.1331398514971187 
-59.725315964256005 -106.94013519706596 96.479536929359838 -59.725315964255984 -106.94013519706596 96.479536929359838 -47.230183388868952 1.8423079357003946e-05 4.3456643054500062e-05 5.9032825598635465e-06 0.0000000000000000 2.4761354113354502e-06 -3.4573512263143001e-06 0.00013944767891707784 0.0024985371695364763 -6.6548145853695206e-10 -1.6653239606157448e-09 1.0201355300343481e-10 0.0000000000000000 -58.254647241440821 -106.62760994408018 105.33920711112118 241.62621693813244 0.0000000000000000 0.0000000000000000 0.0000000000000000 0.0000000000000000 3.2775368402200504 3.5730512139579287 1.2958518991527694 1.1376871468755290 1579.6030931170383 1579.5895081374354 1.1383538421606181 
-65.990987861649430 -90.118314273186499 86.992102845453104 -65.990987861649444 -90.118314273186513 86.992102845453076 -94.733010558754344 -2.6939880562192516e-05 -1.0541952173614721e-06 5.4261881170511213e-05 0.0000000000000000 2.7726003080841864e-06 -3.9937422441873831e-06 0.00015326968784106857 0.0033108717822240949 -8.4785369387861528e-10 6.6670609850978635e-11 -1.1514739754256994e-09 0.0000000000000000 -64.370648572599308 -90.090304358695661 96.688480747766732 239.98138923263960 0.0000000000000000 0.0000000000000000 0.0000000000000000 0.0000000000000000 3.2723764424264501 3.5615936246292152 1.2895039113021804 1.1331332324530161 1617.5943140036982 1617.5895147051733 1.1355538620353192 
-77.788488831285491 -99.908777130533807 92.066119869073034 -77.788488831285534 -99.908777130533849 92.066119869073063 -82.748706876453753 -4.2143535178655203e-05 5.5065465277551054e-05 -1.4149181978931074e-05 0.0000000000000000 3.5433162613843429e-06 -2.9767948046529631e-06 0.00014625739753843769 0.0030141162909152704 1.1605951246129847e-09 -1.3836031894777461e-09 -2.1348983943091893e-10 0.0000000000000000 -75.913673002404863 -99.702254402691466 101.32606574872912 288.13617662859207 0.0000000000000000 0.0000000000000000 0.0000000000000000 0.0000000000000000 3.2743659084095649 3.5660586723189169 1.2920060687729766 1.1348446231458926 1612.2391502591774 1612.2369288436464 1.1366707978360966 
-56.570675411316095 -93.681554851301684 94.264328410912526 -56.570675411316110 -93.681554851301684 94.264328410912583 -88.410847288385511 4.6394305478548991e-08 3.0942673603716130e-05 2.5736696524795105e-05 0.0000000000000000 2.2902065154003808e-06 -3.8413707817873832e-06 0.00014293962055259531 0.0033511720176190997 2.4817618267047259e-10 -1.1699752459102003e-09 5.0587202097109353e-10 0.0000000000000000 -55.164710769962618 -93.586508083202432 103.32606452766413 222.68531933077850 0.0000000000000000 0.0000000000000000 0.0000000000000000 0.0000000000000000 3.2716020579024514 3.5595340815653320 1.2882055981608576 1.1345776450619001 1639.0857934192438 1639.0900807320145 1.1349916550683199 
-46.922417582565785 -177.36908851963511 151.39577624977341 -46.922417582565764 -177.36908851963508 151.39577624977343 -56.286081981031593 -2.8557784317286923e-05 -2.3368729631950050e-05 5.4067489296794849e-05 0.0000000000000000 6.3792594789946477e-08 2.6982468481762112e-08 6.6763172515749147e-05 0.0024482504314667672 8.5367402279909723e-10 8.3277608335751205e-10 -9.4444554905059312e-10 0.0000000000000000 -45.762777822239421 -175.89580528354742 155.64915507299250 248.91339099022119 0.0000000000000000 0.0000000000000000 0.0000000000000000 0.0000000000000000 3.2714357252617536 3.5589053670079518 1.2877360245490224 1.1336208834854047 1553.4011564568323 1553.4011576727564 1.1347816024970214 
-52.712027038698110 -187.18659655057482 165.03899266760962 -52.712027038698118 -187.18659655057488 165.03899266760962 -67.806767294124924 4.9987363421195816e-06 -6.3340193909178958e-06 -5.8908986792882146e-06 -76.193578894808567 7.0222890974358521e-08 2.9738819629088201e-08 4.8890230797127288e-05 0.0027138191205782025 -1.0281633180726149e-10 6.5976648054689878e-11 1.6846671927698976e-10 0.0027408236108382787 -51.435495451599998 -185.56281141599996 168.15371392000000 294.81703600272857 0.0000000000000000 0.0000000000000000 0.0000000000000000 0.0000000000000000 3.2624599809096329 3.5400740521945688 1.2778628701741466 1.1309569199735281 1548.4680121930248 1548.4680139558911 1.1304272250107243 
-43.772114677310171 -172.57709405559424 162.98463976731966 -43.772114677310157 -172.57709405559430 162.98463976731958 -64.446330217925777 6.5237589901796038e-06 -5.9349633274763751e-06 9.4795268336391887e-06 0.0000000000000000 2.0017212693370576e-07 -2.0470338931031326e-07 5.1506027467957431e-05 0.0026621099927704363 -1.2438948506028637e-10 9.3226431814980098e-11 -8.0789661846246665e-11 0.0000000000000000 -42.672974891599750 -171.18173466392949 166.26923354793541 271.88244999766295 0.0000000000000000 0.0000000000000000 0.0000000000000000 0.0000000000000000 3.2638802848253472 3.5431148734248885 1.2794892222053678 1.1315566268414659 1544.2198689493844 1544.2198692550619 1.1311454853041161 
-60.823027054743790 -179.52369666640408 153.68859500662992 -60.823027054743768 -179.52369666640413 153.68859500662987 -76.334571769324654 -1.1297293593201417e-05 -5.7077118916533144e-06 -2.8851082420745598e-06 0.0000000000000000 7.9231473743002212e-08 2.7587404138884608e-08 6.3759524795869979e-05 0.0028484847668977867 3.2212515636706871e-10 1.7358973305093198e-10 -5.0696400855184114e-11 0.0000000000000000 -59.382734921100123 -178.01738339707751 157.75061606229067 243.94852352315442 0.0000000000000000 0.0000000000000000 0.0000000000000000 0.0000000000000000 3.2635533082248762 3.5421855301212739 1.2788757217015814 1.1314787280075964 1563.2361871804608 1563.2361928075384 1.1308749171580077 
-31.502953345005906 -103.03408409928451 85.529141304635814 -31.502953345005910 -103.03408409928447 85.529141304635857 -82.748685570136317 2.4967097677867846e-05 5.1300701388762689e-05 -0.00010401974511127424 0.0000000000000000 1.0264095390627419e-07 -1.1573765802278126e-06 0.00015482164534720824 0.0026599510375146366 -6.5241322624208078e-10 -2.6314325715625127e-09 8.9732832024674250e-10 0.0000000000000000 -30.660097366607719 -102.72526557899965 95.328291536857705 204.58703120518373 0.0000000000000000 0.0000000000000000 0.0000000000000000 0.0000000000000000 3.2701464001170795 3.5558515902851675 1.2859545533571781 1.1332422328259606 1594.8320167305867 1594.8341129656828 1.1339963058502962 
-19.408354215206277 -111.36743233704277 83.428101992977105 -19.408354215206270 -111.36743233704281 83.428101992977147 -146.07267506722727 5.4763513437505400e-05 7.5190551945329769e-07 -9.8771043595078590e-05 0.0000000000000000 3.3233759494377679e-08 8.4518101406416690e-09 0.00015580246088831015 0.0033979299422960312 -2.1002635252958716e-09 -1.7268847198432141e-10 1.2569788877063954e-09 0.0000000000000000 -18.804221549666405 -110.90595113131390 93.354036648627854 267.24800799435923 0.0000000000000000 0.0000000000000000 0.0000000000000000 0.0000000000000000 3.2617837639785572 3.5381407347037457 1.2765873881348846 1.1305983785880747 1694.3268196176409 1694.3250198812987 1.1298641093933699 
-34.692905514793814 -105.06867780178523 74.244995749621054 -34.692905514793800 -105.06867780178526 74.244995749621026 -147.97602449597710 6.0973190428734163e-05 -1.5870847532686744e-05 -7.6762724282555312e-05 0.0000000000000000 -9.9585072728706090e-07 -1.5419785931292619e-07 0.00017028204045138690 0.0037077286733996459 -9.5519502215661280e-10 2.0953817991304211e-10 7.8365008990035799e-10 0.0000000000000000 -33.815892125380543 -104.71065599625929 85.007910193808286 270.69679205096202 0.0000000000000000 0.0000000000000000 0.0000000000000000 0.0000000000000000 3.2581294816555149 3.5311766067989181 1.2732945319113753 1.1298341696364720 1665.4539548904309 1665.4357198735183 1.1283968564175522 
-19.527726506374037 -100.67728290246339 85.658257239919280 -19.527726506374044 -100.67728290246343 85.658257239919280 -117.20076845764349 2.3203044087542009e-05 -1.0446944314833309e-05 -2.2884054270431766e-05 0.0000000000000000 3.3366342938601079e-08 5.4504314395131814e-09 0.00015288090387244324 0.0031569213302062673 -5.3024178087558959e-10 2.4632861687536618e-11 1.2976437251023717e-10 0.0000000000000000 -18.921183722278450 -100.37968114352928 95.398064000337470 185.31956687594098 0.0000000000000000 0.0000000000000000 0.0000000000000000 0.0000000000000000 3.2644740782690111 3.5437552474027219 1.2795139033745289 1.1309955473617774 1652.7125107750801 1652.7099316356291 1.1311600551739960 
-31.972288636846237 -118.52890889436252 170.58907431895736 -31.972288636846226 -118.52890889436244 170.58907431895739 -107.58965764784317 4.9928666538222511e-05 5.5510596479832034e-05 8.0438238290107987e-06 0.0000000000000000 -3.1953303925242467e-07 -8.6356057478240624e-07 4.0438454310447174e-05 0.0033123766504235151 -1.2181658450508970e-09 -1.4664457765655664e-09 -1.8219288592543328e-10 0.0000000000000000 -31.124431206993112 -117.97934695114738 173.21200361760444 258.17126679857051 0.0000000000000000 0.0000000000000000 0.0000000000000000 0.0000000000000000 3.2652287948354135 3.5456875273269608 1.2807039201679056 1.1321460673760551 1625.8983081673939 1625.8983084459041 1.1316820236713570 
-31.490456092301059 -133.93006792572285 161.40063620226780 -31.490456092301081 -133.93006792572294 161.40063620226772 -79.797160324218368 3.2437084998509683e-05 4.2570118375414410e-06 -3.6658717591143008e-06 0.0000000000000000 8.2755633069193151e-08 -4.7958923908152318e-07 5.3198795683444501e-05 0.0028715338104036178 -8.3667264412104746e-10 -5.8503011680426175e-11 -2.9318316035031479e-11 0.0000000000000000 -30.642131568542830 -133.13454878399213 164.80820313575899 262.24283076768535 0.0000000000000000 0.0000000000000000 0.0000000000000000 0.0000000000000000 3.2674020564565649 3.5506879654736569 1.2835538971996334 1.1331465005522545 1593.3069769470019 1593.3069749394397 1.1329396794561177 
-43.783971591500304 -120.65991315344192 160.23793202396485 -43.783971591500304 -120.65991315344186 160.23793202396476 -58.456728716654695 6.3874737428200378e-05 2.7156449969111636e-05 4.7772138430129038e-06 0.0000000000000000 4.9816516068808127e-07 -2.1166508766721440e-06 5.3119457362012965e-05 0.0025374071523431773 -1.8576662540516528e-09 -7.9196373485540502e-10 -3.7118029387614711e-10 0.0000000000000000 -42.676694985445003 -120.10595080876966 163.70375490782192 268.28772502602959 0.0000000000000000 0.0000000000000000 0.0000000000000000 0.0000000000000000 3.2772667737920025 3.5721400789682849 1.2951916605610276 1.1367212632033783 1584.2722778977268 1584.2722823683362 1.1380634550277013 
-24.453313381246641 -114.74726126889094 158.12064787697707 -24.453313381246634 -114.74726126889084 158.12064787697719 -117.24803752716998 2.2623557794217648e-05 1.8384557393150420e-05 1.8069863685341998e-05 0.0000000000000000 3.8837004529002073e-08 9.4007226447700987e-09 5.7953428903800848e-05 0.0033779660077854884 -5.9531429094281609e-10 -4.6354634146231972e-10 -1.5163389859765687e-10 0.0000000000000000 -23.747323328369049 -114.23396745764113 161.81277151251504 321.01516800445251 0.0000000000000000 0.0000000000000000 0.0000000000000000 0.0000000000000000 3.2621287043902218 3.5391811640654667 1.2772905524950775 1.1310062962945557 1639.4375481457628 1639.4375466650376 1.1301751320294009 
-6.8132870933492926 -105.35689270302456 100.86046292336295 -6.8132870933492917 -105.35689270302458 100.86046292336297 -50.355720760315670 3.2115189003785844e-06 -3.7251791195743062e-06 -5.4285213692623539e-05 -24.787971233319787 1.9244892762726454e-08 6.7642829115754921e-09 0.00013296564871012606 0.0021711536737954191 -1.0278542127496686e-10 2.4980549820459357e-10 4.7018402194546308e-10 0.0017324671891195272 -6.4634479885999987 -104.98755276399999 109.33149947120000 327.67017865987640 0.0000000000000000 0.0000000000000000 0.0000000000000000 0.0000000000000000 3.2631949539053333 3.5416765865216062 1.2787328919292782 1.1311699340771517 1497.4043374117248 1497.4044899073006 1.1308111097605145 
-12.266783260755403 -97.363685011499442 92.247840660183783 -12.266783260755403 -97.363685011499442 92.247840660183783 -100.61673693581294 -5.5744537467867213e-07 -8.5609031005966071e-06 -6.5452725711831784e-05 -93.069312205905362 2.5301886058537448e-08 4.5201000720140891e-09 0.00014424839106297327 0.0029283073602121511 6.0101918578848162e-12 -8.3974638940905394e-11 6.8710233834779794e-10 0.0027990275539141432 -11.806838433999999 -97.116880539599975 101.43768333439998 212.90238721710071 0.0000000000000000 0.0000000000000000 0.0000000000000000 0.0000000000000000 3.2633756911029481 3.5419350120163591 1.2788078863555064 1.1308780311059290 1607.2976829017068 1607.2966340894275 1.1308438492113753 
-16.392854569263068 -110.81308589463850 94.058719230173779 -16.392854569263076 -110.81308589463852 94.058719230173722 -84.951256321470893 2.3390241200341755e-05 -7.2064208492188071e-06 -0.00012443993622432553 0.0000000000000000 2.9884558300219410e-08 8.2961630898381600e-09 0.00014187609657412281 0.0026300947843381568 -8.1106600905123912e-10 1.2083447856748129e-10 1.1863585420849196e-09 0.0000000000000000 -15.849604639409371 -110.36010279166017 103.09742667861765 236.22178992679409 0.0000000000000000 0.0000000000000000 0.0000000000000000 0.0000000000000000 3.2617742489144486 3.5386591420498932 1.2771324847732517 1.1309679000139028 1578.2968895505981 1578.2979028424595 1.1301034333709941 
-24.455615180439437 -99.818651442408012 93.168873290456901 -24.455615180439437 -99.818651442408012 93.168873290456915 -77.798275672366188 3.2240663309109024e-05 4.7881826539851730e-05 -7.5628113100862539e-05 0.0000000000000000 3.8839560040360155e-08 5.2093591662583086e-09 0.00014304181615543146 0.0027298373297312984 -4.5019367968449840e-10 -1.2509046573613805e-09 9.0879728652135256e-10 0.0000000000000000 -23.749578654390465 -99.534212460059550 102.28184693721489 211.57004919854941 0.0000000000000000 0.0000000000000000 0.0000000000000000 0.0000000000000000 3.2645126053180018 3.5445819944684582 1.2803269994939326 1.1318981742820491 1571.4676648733946 1571.4680262739121 1.1315152554469874 
-55.480444984002084 -108.72383325137764 105.77789478567128 -55.480444984002112 -108.72383325137758 105.77789478567134 -28.863359852236950 1.1181399266435594e-05 2.8841594245858413e-05 -2.2203350519780509e-05 0.0000000000000000 3.0015633812098624e-06 -3.0806304679052960e-06 0.00012648082240359316 0.0021976245534074093 -1.3056752932941722e-10 -8.4813473673918316e-10 -2.3265921747579797e-10 0.0000000000000000 -54.087034329299712 -108.37170302860723 113.84396407125838 191.01171882188567 0.0000000000000000 0.0000000000000000 0.0000000000000000 0.0000000000000000 3.2798731928225719 3.5778600247122649 1.2983272189123765 1.1387528761720334 1552.9271488531513 1552.9319223756650 1.1394425133888506 
-42.816125983296963 -108.09967141830471 102.63834347920586 -42.816125983296985 -108.09967141830474 102.63834347920589 -38.290099760226084 -1.2021214920716119e-05 2.2463009677398153e-05 8.5599053917134471e-06 0.0000000000000000 2.4838868347072411e-06 -2.8364015589701297e-06 0.00013106762274953186 0.0021197053648233308 5.4152058433022972e-10 -1.3080214778740321e-09 -1.3085106743429445e-10 0.0000000000000000 -41.690910404717421 -107.74885629568415 110.97670241767709 270.34727434602189 0.0000000000000000 0.0000000000000000 0.0000000000000000 0.0000000000000000 3.2763823493714042 3.5697995959105637 1.2937161841057259 1.1372010901452470 1566.7442661511302 1566.7434727972311 1.1374164706282455 