# For a description of the Tecplot format see the Tecplot User's guide.
#
Variables=x,y,z,s_u,s_v,s_w,s_p,mono_f_vel_u,mono_f_vel_v,mono_f_vel_w,const,u_nu,v_nu,w_nu,p_nu,x_nu,y_nu,z_nu,const,u_ref,v_ref,w_ref,vol_ref,x_ref,y_ref,z_ref,const,I1,I2,I3,J,p1,p2,p3
Zone f=fepoint, n=3174, e=16683, et=brick, c=black
-25.8160 -155.578 101.800 -25.816046407178309 -155.57808946122017 101.79959670594866 9.6936899074700165 1.0222426413010422e-05 -9.4516404098070599e-05 0.00014614064635189346 100.52238681881522 7.7508122142688762e-10 3.0395153061135711e-10 1.0622927156589411e-05 0.025348306747765243 -5.6462177630001943e-08 -6.5735089004764485e-07 -1.9474564743376693e-07 0.037938470627605726 -24.903554063199991 -154.16086777200002 112.24023381839994 89.724962256112903 0.0000000000000000 0.0000000000000000 0.0000000000000000 0.0000000000000000 3.3380089501699199 3.7002922110977590 1.3627700826793647 1.1746017814874905 1712.3339129649428 1712.3336802500025 1.1674230186876224 
-38.760881736765207 -156.42773962063978 104.75676509010830 -38.760881736765207 -156.42773962063981 104.75676509010829 -10.115261621979906 5.5777051641026712e-05 9.6471996955405253e-05 -6.0883057262196098e-06 0.0000000000000000 -0.00012246281629168601 0.00024374048668469097 -1.7795071801311491e-06 0.0082914505438062263 -4.9319623824867839e-08 -1.5720585425646150e-07 6.4357370911901805e-08 0.0000000000000000 -37.438273663334591 -155.10473791080037 114.93291110338620 89.036758072416930 0.0000000000000000 0.0000000000000000 0.0000000000000000 0.0000000000000000 3.3869955468510780 3.8125333094604379 1.4265599044180768 1.1913189744108794 2027.6672979495413 2027.6631069983409 1.1943864730790772 
-32.626159207805465 -149.17416723623197 110.30365200119621 -32.626159207805465 -149.17416723623194 110.30365200119618 -29.421524547763834 -1.0250706807847609e-05 0.00015330177494926977 8.9293433443432608e-05 0.0000000000000000 9.2036900323222416e-10 2.7776936306622696e-10 9.7245738288620504e-06 0.0086958152673408499 -3.7326173943056412e-08 2.7048235904327412e-07 3.0389410312176280e-07 0.0000000000000000 -31.542619574254449 -147.87907313389167 119.86135157363466 98.260374494724786 0.0000000000000000 0.0000000000000000 0.0000000000000000 0.0000000000000000 3.3638180532955131 3.7598275684523808 1.3967197139156391 1.1826068996305754 2013.0196735048535 2013.0203631184909 1.1816952504404723 
-29.656610259155997 -144.16698497701441 101.67047801818222 -29.656610259155975 -144.16698497701432 101.67047801818218 -18.041646738011902 -0.00024191930393598703 8.8014945592715079e-05 0.00012906848798625601 0.0000000000000000 8.5701989949171775e-10 2.5727553421006633e-10 1.0636567026267587e-05 0.086188199017620551 -4.8839279513425088e-07 3.2594747154439180e-07 -3.4948709765811753e-08 0.0000000000000000 -28.647655777685479 -142.96738158566356 112.12452093910819 112.69127588814607 0.0000000000000000 0.0000000000000000 0.0000000000000000 0.0000000000000000 3.3714639625396488 3.7751218072176158 1.4043029700712473 1.1871783966530287 1973.2831521408859 1973.2918159972176 1.1849140194176899 
-25.157820093685508 -202.74896526600961 58.823941790046447 -25.157820093685505 -202.74896526600963 58.823941790046447 -1655.6247858964041 -0.00015101041142636542 8.6135396661214686e-05 -0.00011986355760633124 -1572.4669101813049 7.6104078594596558e-10 4.9691051273725861e-10 1.5162799204659901e-05 0.010397944112213463 2.1825566347100297e-09 -6.7784688714976266e-10 5.1029062129206242e-09 0.015110837097957686 -24.261860196399997 -200.43215969199997 73.726546483199982 142.71380061529433 0.0000000000000000 0.0000000000000000 0.0000000000000000 0.0000000000000000 3.3366970195181471 3.6979019086413527 1.3617085192334217 1.1668554771016526 4547.2944467095358 4547.3690540747621 1.1669209392256159 
-25.050666315031041 -189.70716642297975 60.590713436671699 -25.050666315031041 -189.70716642297975 60.590713436671692 -1703.5286385758495 0.00013176557342455119 4.8335003484971362e-05 8.8460229096553662e-05 -1735.0908856615574 7.5875294935912052e-10 4.4356651685006909e-10 1.4976160581881001e-05 0.0074127743048262879 1.6884388573632545e-08 -1.3324516534354318e-08 -4.1317685962448391e-09 0.010022821553863876 -24.157397762799999 -187.63907770800003 75.309882232799993 165.73632395326644 0.0000000000000000 0.0000000000000000 0.0000000000000000 0.0000000000000000 3.3366199174363702 3.6976026768307220 1.3614764503609904 1.1668554771016548 4783.4535281827002 4783.5256666711948 1.1668146525738425 
-36.055208164404164 -197.63052196754248 67.605861356229269 -36.055208164404149 -197.63052196754239 67.605861356229255 -1615.7906757410690 0.00011664209051267725 -6.4509210624661120e-05 -8.1061519779865835e-06 0.0000000000000000 9.9352714943989895e-10 4.7597259467124786e-10 1.4235092788084099e-05 -0.0056427661155956576 -2.7442020136392301e-08 4.4155856577034746e-08 6.7010644973441255e-08 0.0000000000000000 -34.885542273181727 -195.41132893576267 81.596679120775832 139.46796289390394 0.0000000000000000 0.0000000000000000 0.0000000000000000 0.0000000000000000 3.3356417439695893 3.6958156140295264 1.3606866848176866 1.1647795124922165 4631.9891247658616 4631.6330092010139 1.1664953145812971 
-19.578425089473431 -196.73175283381497 67.400852045909943 -19.578425089473438 -196.73175283381502 67.400852045909929 -1678.8837535113228 -8.2180202040372702e-06 0.00034187488986327593 0.00022889555203696799 0.0000000000000000 6.4200522675861293e-10 4.7227954880213474e-10 1.4256749611973875e-05 0.0098981767758051162 2.7162682766293957e-09 8.7520171455219147e-09 3.9010576453461163e-09 0.0000000000000000 -18.822600960987238 -194.52970000168264 81.412954998504986 111.95285379220412 0.0000000000000000 0.0000000000000000 0.0000000000000000 0.0000000000000000 3.3373386969495540 3.6991588034931051 1.3623214013166107 1.1668554771016533 4803.4699552553038 4803.5035631047513 1.1671892806220081 
-23.518774623042152 -103.63452848021474 24.803933498678713 -23.518774623042155 -103.63452848021474 24.803933498678710 -610.66568112634513 -0.00010274096250748639 0.00018911149641212519 -0.00017604958183844302 -654.33583291816069 7.2607220236164959e-10 9.1499474663692139e-11 1.8756612615078442e-05 -0.065737499162477731 1.2391827733029619e-08 -1.8286845247360875e-08 1.9678806336473172e-08 -0.061767735469478127 -22.663982073999996 -103.20790935200000 43.238681550399988 69.202643319072678 0.0000000000000000 0.0000000000000000 0.0000000000000000 0.0000000000000000 3.3365304583816551 3.6975188808357595 1.3614904271722550 1.1668554771016562 2891.3937374661687 2891.7748703148541 1.1668292553550617 
-31.199363989178490 -111.34680495323622 28.988469342854582 -31.199363989178490 -111.34680495323620 28.988469342854575 -551.36262019923856 -4.3212691403471353e-05 0.00017159096110305963 -0.00015542456964825812 -499.73764841399890 8.8993123981140343e-10 1.2304646190841595e-10 1.8314565661370352e-05 -0.070473734578438418 2.2829569243568154e-09 -1.2392775916707813e-08 7.8281219173245980e-09 -0.077840819497289479 -30.151660686400003 -110.77310694400001 46.988755992800002 74.715282964229786 0.0000000000000000 0.0000000000000000 0.0000000000000000 0.0000000000000000 3.3366219238265438 3.6977088488034813 1.3615891525446118 1.1668554771016546 2702.0799819505373 2701.9751721118960 1.1668716116826017 
-19.488721385016941 -104.00064965283032 32.357972949728250 -19.488721385016937 -104.00064965283035 32.357972949728257 -515.95079613344660 -9.8221766315317375e-05 0.00011353478438681467 -0.00015844193724471052 -521.78564631436370 6.4009403333287196e-10 9.2990726230368650e-11 1.7958617274160815e-05 -0.072932129224414929 5.8443562765659819e-09 -6.2133523816945631e-09 1.1080428756439038e-08 -0.074331301396769217 -18.735150314000002 -103.56704831999998 50.008419303199993 79.719497061372692 0.0000000000000000 0.0000000000000000 0.0000000000000000 0.0000000000000000 3.3365373459529999 3.6975220176433008 1.3614862459443413 1.1668554771016548 2684.2001472838306 2684.2493233518499 1.1668272296981432 
-26.419529044507481 -98.822438150629239 33.444612465856906 -26.419529044507492 -98.822438150629281 33.444612465856920 -541.50146023222067 -1.0393299267516725e-05 4.4703526990468796e-05 -0.00029916283973683335 0.0000000000000000 7.8795847624490979e-10 7.1820327463001377e-11 1.7843826594088345e-05 -0.071986222784281642 -4.0371593069821401e-09 -4.6326473018196800e-09 1.7629369615911554e-08 0.0000000000000000 -25.491879232152165 -98.487589184379729 50.982237960580505 72.292163684038698 0.0000000000000000 0.0000000000000000 0.0000000000000000 0.0000000000000000 3.3366926166090414 3.6978803947001819 1.3616909856971193 1.1668554771016550 2764.8566694585543 2765.1363726009149 1.1669150983164049 
-26.594023860937899 -104.38959022158377 98.000798316313947 -26.594023860937906 -104.38959022158375 98.000798316313976 -213.83730598380700 -0.00010038747577536988 0.00097470227993859035 -0.00088382942483133931 0.0000000000000000 -0.00052732596612646576 7.9140017199845377e-06 -4.1417663308639026e-05 -0.43604332047898137 -1.9523642980300134e-06 -2.0399809591960348e-06 5.6939843788242754e-07 0.0000000000000000 -25.283559732051039 -104.23282252886388 108.75695162467670 96.378087069502698 0.0000000000000000 0.0000000000000000 0.0000000000000000 0.0000000000000000 3.4121706800616356 3.8603525386984789 1.4480373218643343 1.1976989579936599 2307.0159631790657 2307.0582377486044 1.2030474269656719 
-27.195957085265125 -118.35038431322505 100.11931505296000 -27.195957085265142 -118.35038431322496 100.11931505295993 24.731716088274311 0.00031166582300926749 -0.00066502810423679532 -0.00064631826630084899 0.0000000000000000 -0.00037889385865075466 0.00062264771010799708 0.00036780460204375985 -0.26184941750756208 -3.1949511427036421e-07 2.3940516312701871e-07 3.8772451120820801e-06 0.0000000000000000 -25.913646985361510 -118.01095136745833 110.66456878241424 88.846747377876298 0.0000000000000000 0.0000000000000000 0.0000000000000000 0.0000000000000000 3.4687364154737677 3.9919625111370900 1.5234427523519098 1.2134589300592618 2083.2251607675989 2083.1854136183592 1.2350205248561259 
-38.427691594467603 -112.14976113536440 101.84945206302881 -38.427691594467632 -112.14976113536434 101.84945206302881 -709.81270663751638 -0.0030611276162437438 0.00014650440998119783 0.00015554976453661733 0.0000000000000000 -0.00042794244125606354 0.0010907135524276014 0.00043807082981901768 -1.0990401770562273 1.4107119918160111e-06 3.0521208820005465e-06 3.4345626802208624e-06 0.0000000000000000 -36.236867317722961 -112.72601430119678 112.03758904139967 95.996160021407249 0.0000000000000000 0.0000000000000000 0.0000000000000000 0.0000000000000000 3.2850824558143579 3.5816771288775691 1.2953951786518181 1.1454165662589462 2762.4304298467282 2762.4305040381391 1.1365702171457093 
-35.308217378557281 -104.80934043892076 94.974881178879841 -35.308217378557281 -104.80934043892071 94.974881178879841 -300.23500638737352 -0.0011931285232059557 0.00069355931369175330 0.0018680628065824015 0.0000000000000000 -0.00043713713035538690 0.00057119125340039970 -2.9511413365902698e-05 -2.1054424972868504 -1.8040654452287638e-06 1.6623568475302111e-06 -8.8680448485398485e-06 0.0000000000000000 -33.380789828628046 -105.09637623893835 105.63342596379557 85.433794965156210 0.0000000000000000 0.0000000000000000 0.0000000000000000 0.0000000000000000 3.3934881020636563 3.8147594745292972 1.4209140300192906 1.1766345478893705 1878.0210478107417 1878.0410747049102 1.1921707819195213 
-115.38149973459180 -162.20712190026137 115.66300924924802 -115.38149973459183 -162.20712190026140 115.66300924924802 -189.90966684712774 -1.0682375486369474e-05 4.0937660413233212e-05 -1.4143663081391567e-05 -176.12571767507595 2.6859132695733483e-09 3.3108982222529448e-10 9.1584208234962699e-06 -0.081827234570814714 9.3155029388810945e-09 -4.4378070170098732e-08 1.0443431792147378e-07 -0.071816573009885393 -112.21942232800005 -160.66347960400000 124.66427103520003 147.55923210393107 0.0000000000000000 0.0000000000000000 0.0000000000000000 0.0000000000000000 3.3300118209655145 3.6828670004703898 1.3533060453263988 1.1668554771016544 2097.1211730095306 2097.1218212910567 1.1633438921769874 
-102.36783508394338 -159.58839008112372 106.64754451611253 -102.36783508394335 -159.58839008112369 106.64754451611256 -166.63063292997751 -3.9388694491159618e-05 -6.6374835519358017e-05 7.1406139296294741e-05 0.0000000000000000 2.4082709160211380e-09 3.2035263330953972e-10 1.0110798541518307e-05 -0.086664790112883847 5.2501611055754125e-08 2.6122414618549054e-07 8.1660614054345285e-08 0.0000000000000000 -99.532617471171264 -158.09468895943013 116.58484116745363 117.70414803503969 0.0000000000000000 0.0000000000000000 0.0000000000000000 0.0000000000000000 3.3542554870908949 3.7366007143464079 1.3829584254295220 1.1750692548688533 2154.8309585496977 2154.8315361358468 1.1759569046912721 
-107.30170243555850 -150.16904701650651 111.45343816825077 -107.30170243555855 -150.16904701650660 111.45343816825074 -176.28683413766169 -2.3244793145880892e-05 3.8964042179624981e-05 0.00033653980324319468 0.0000000000000000 2.5135307168966392e-09 2.8184787836948999e-10 9.6031124598994211e-06 -0.12134396224877568 6.4361495454987240e-08 -7.8956555914870463e-08 -2.4443062335083068e-07 0.0000000000000000 -104.34256255272837 -148.85497981259945 120.89176065121424 119.29379793442074 0.0000000000000000 0.0000000000000000 0.0000000000000000 0.0000000000000000 3.3521563389575131 3.7327851683790669 1.3812477340148017 1.1762930011944681 2194.3560512361896 2194.3543060320831 1.1752446854417864 
-103.39133418679009 -163.85818400330217 115.55537887353510 -103.39133418679010 -163.85818400330211 115.55537887353510 -178.40165456594178 -1.6679525271836041e-05 -1.2614260670654342e-07 5.8374445942988756e-06 0.0000000000000000 2.4300983447744788e-09 3.3783775776896613e-10 9.1697907009802293e-06 -0.080855929160093404 -3.6287538099417592e-08 1.2699693056569078e-08 -8.1933697949574819e-09 0.0000000000000000 -100.53040969477119 -162.28305471776312 124.56781543385799 141.51484144144280 0.0000000000000000 0.0000000000000000 0.0000000000000000 0.0000000000000000 3.3429865623519399 3.7120122044621273 1.3695714396761125 1.1714231580337249 2121.6481347123768 2121.6479245482274 1.1702811191196330 
-80.691303096748626 -150.11038649182416 76.367045182960936 -80.691303096748612 -150.11038649182413 76.367045182960950 -252.52926693027715 -0.00021957784127787550 0.00015457937818851800 -9.1691656034045379e-05 -211.05398369957081 1.9458115119164177e-09 2.8160007659039371e-10 1.3309576850417670e-05 -0.082290962106008142 -1.6465744370622011e-07 2.6930465799191292e-07 -9.8755574301564274e-08 0.045685953335967470 -78.400527573600002 -148.79743798799998 89.448228916799977 108.06316173413846 0.0000000000000000 0.0000000000000000 0.0000000000000000 0.0000000000000000 3.3344975507546049 3.6918637090395170 1.3577773407425711 1.1668554771016544 2211.9179329015974 2211.7186677480790 1.1652555372787357 
-82.485195395363093 -164.11466488377394 74.497745015663455 -82.485195395363093 -164.11466488377394 74.497745015663455 -276.15365567494712 8.8108143533701774e-05 -0.00012621379845386530 2.4768963829410422e-05 -285.56524878642483 1.9840906695378635e-09 3.3887559425238578e-10 1.3507046407568167e-05 -0.056757154724136463 2.8624266975904796e-08 -2.2567882331755998e-08 3.5545287572684700e-08 -0.026711338669757959 -80.149363288800018 -162.53464431600008 87.773009718400019 109.57810873427631 0.0000000000000000 0.0000000000000000 0.0000000000000000 0.0000000000000000 3.3395589407941983 3.7041632553204322 1.3651346721837603 1.1668554771016533 2236.2131025723493 2236.3300286583044 1.1683913000199300 
-86.738130238968736 -161.71876228988233 82.532101346202538 -86.738130238968722 -161.71876228988239 82.532101346202566 -284.76959854256086 -0.00013238252799523652 -1.6059710616778054e-05 -7.5466523614655878e-05 0.0000000000000000 2.0748207596454904e-09 3.2908387126440175e-10 1.2658311231206197e-05 -0.065533300371977340 -2.5382113713321608e-08 2.3207935320398091e-08 1.6137389700984064e-07 0.0000000000000000 -84.295478612813938 -160.18443337667750 94.973195224810283 106.11323630727971 0.0000000000000000 0.0000000000000000 0.0000000000000000 0.0000000000000000 3.3350849304515999 3.6959245659237081 1.3613974999817484 1.1656208556062109 2285.9297893834887 2285.9617335522289 1.1667812308988141 
-88.972789486070539 -152.75350384472637 79.922441883943492 -88.972789486070511 -152.75350384472634 79.922441883943506 -357.92318105042978 -0.00035880427962190045 0.00010358412002108929 -0.00018182857470208525 0.0000000000000000 2.1224879631631666e-09 2.9239721754947823e-10 1.2933991037300531e-05 -0.10141589142747219 -1.3316291098318789e-07 1.2096172404658409e-07 1.2103367785463241e-07 0.0000000000000000 -86.474010682800568 -151.39014911596544 92.634484883397832 94.367740677547317 0.0000000000000000 0.0000000000000000 0.0000000000000000 0.0000000000000000 3.3236057493554068 3.6696185881027774 1.3464439278350291 1.1643650175396452 2391.3306110375324 2391.1213659654545 1.1603869815319703 
-26.959878106160822 -133.42565327338846 131.26304367626054 -26.959878106160826 -133.42565327338846 131.26304367626057 15.770076765098835 7.8593357672237827e-05 -0.00025034977140070858 0.0014991029029739638 129.13749543161956 7.9948647702110520e-10 2.1334445321485873e-10 7.5104608150411423e-06 0.55773521275845372 1.7471611337668778e-07 -5.3232682042184650e-07 4.1109434018580631e-06 0.58061593394640387 -26.018656529999991 -132.43089511199997 138.64462455200004 49.421240865332216 0.0000000000000000 0.0000000000000000 0.0000000000000000 0.0000000000000000 3.3271471701036357 3.6793521799918021 1.3532326131671923 1.1759824895920956 1546.8746399933295 1546.8746327196582 1.1633208230799748 
-33.603534962737889 -134.98123763879332 130.10068706221574 -33.603534962737882 -134.98123763879326 130.10068706221577 -27.823776352589331 -0.00033740848691294468 -0.00020708658664759326 3.9388612694347849e-05 -656.48219137730996 9.4122132310303641e-10 2.1972379471435486e-10 7.6332501066644909e-06 0.30258908252245725 -9.3271043102327913e-07 -5.5832811040810812e-07 1.4009216675917757e-06 2.1185796513178237 -32.495446914399992 -133.95681332000001 137.60295016000006 48.530522504776933 0.0000000000000000 0.0000000000000000 0.0000000000000000 0.0000000000000000 3.3642449382019213 3.7551965984220730 1.3904666764327513 1.1823200387860195 1932.3640081128840 1932.3640069121514 1.1786993770322451 
-29.421246793669358 -137.51145455597276 133.12138705102046 -29.421246793669358 -137.51145455597273 133.12138705102049 -66.423843274212473 0.00017116626057327617 0.00029523200183843390 1.5568737921824185e-05 -101.42792861289198 8.5199625132759148e-10 2.3007773464200914e-10 7.3141487249017683e-06 0.12278644082214027 7.2105181979497822e-07 6.0870982318028132e-08 4.9032461148937385e-09 -0.29946131390115133 -28.418203856399998 -136.43877710800004 140.31002455199999 44.353383947079159 0.0000000000000000 0.0000000000000000 0.0000000000000000 0.0000000000000000 3.3313044640496248 3.6861206057879481 1.3553083054598576 1.1675376881753683 1876.6225924199541 1876.6225890768155 1.1641241754514264 
-27.728902389127263 -130.43954802536501 137.06962447264118 -27.728902389127260 -130.43954802536504 137.06962447264124 -186.98566864766360 -6.6320400645031381e-05 0.00030526342325360763 9.7364566798807729e-05 0.0000000000000000 8.1589168754447883e-10 2.0114621079869721e-10 6.8970638977816626e-06 0.054508250976011856 -5.7449467145275902e-07 2.2424312894958923e-07 -1.2491634010427719e-07 0.0000000000000000 -26.768365491316434 -129.50173712462359 143.84833436668455 49.139845408488213 0.0000000000000000 0.0000000000000000 0.0000000000000000 0.0000000000000000 3.3741085675236202 3.7811475972203539 1.4076301577911883 1.1789779043000894 2497.4248132268326 2497.4248126037569 1.1862330450011382 
-41.371967042878545 -65.169126129778945 148.34538197946358 -41.371967042878545 -65.169126129778959 148.34538197946358 -690.31911618609934 0.0010705694273165432 7.2867404340839164e-05 -0.0019691489534868632 -5.3016163728792041 1.1069596350665734e-09 -6.5827121531469869e-11 5.7059128693026651e-06 0.50055234118636682 3.8579884546803089e-06 3.1362093793437029e-07 -5.4282304962786709e-06 3.0374478177240460 -40.068761925200000 -65.476070995999990 153.95338104800004 156.95717166164070 0.0000000000000000 0.0000000000000000 0.0000000000000000 0.0000000000000000 3.4140926235453004 3.8637360354285648 1.4502702029309291 1.1761082484960312 2733.4268557331166 2733.4282737506078 1.2050726672395062 
-54.048351464163488 -59.235676072239393 143.11251003734466 -54.048351464163488 -59.235676072239379 143.11251003734466 -968.98146453987272 0.0015669573532405741 0.00095111223579971650 -0.0039435952893975635 -315.95253434098782 1.3774035245717187e-09 -9.0103036143318604e-11 6.2587041895767462e-06 -1.8786531713353953 -1.0150296515354592e-05 -1.3825163541668908e-06 1.0120218524573858e-05 -4.1148042238231142 -52.426757905599978 -59.655776269200025 149.26381449600007 118.05125250056595 0.0000000000000000 0.0000000000000000 0.0000000000000000 0.0000000000000000 3.3692592824724703 3.7681108064841946 1.3993792043285409 1.1727766232410606 3520.2926308659448 3520.2873726370340 1.1826491959183263 
-36.349987013836632 -65.733590050559812 138.35425899313941 -36.349987013836639 -65.733590050559798 138.35425899313941 -1875.5043276635747 -0.00059840010629760149 0.00074634975093429141 -0.0018491349102380437 -1955.4780831004380 9.9981911638735710e-10 -6.3526073290631757e-11 6.7613574010749736e-06 0.47768861795195655 4.2081641352739272e-07 -9.9817603650550813e-07 1.6417691944997951e-06 0.27575613442923785 -35.172917262399999 -66.029770167599992 144.99959110400002 155.12084301790807 0.0000000000000000 0.0000000000000000 0.0000000000000000 0.0000000000000000 3.2987012037255217 3.6192459204463243 1.3208859218671329 1.1543688255266320 5857.6107661764454 5857.6120888922023 1.1487268875064027 
-51.982535403156611 -66.304842278669710 135.23419653564676 -51.982535403156596 -66.304842278669696 135.23419653564676 -1954.9206351324783 0.00092020878190942582 0.0033995532007394112 -0.0053333655796377367 0.0000000000000000 1.3333296688955441e-09 -6.1182392485648052e-11 7.0909552611908566e-06 -1.0312594595030973 -6.7556774828720550e-06 -1.7181636946930102e-05 5.0913693213879242e-06 0.0000000000000000 -50.412828244765279 -66.590128188430739 142.20347059834828 136.07757377940416 0.0000000000000000 0.0000000000000000 0.0000000000000000 0.0000000000000000 3.2137748072814545 3.4178223646895050 1.2036889772882022 1.1241139337843720 5115.5947312686503 5115.5902004818454 1.0972377328374063 
-97.266815886592298 -160.22254610337833 63.176129940119665 -97.266815886592298 -160.22254610337833 63.176129940119644 -539.06093901046438 -0.00019339636434352410 -6.1858796894792507e-05 -0.00026416469314259866 -622.04052781399855 2.2994406378984422e-09 3.2294833474111329e-10 1.4703041763652893e-05 -0.056953534256442090 -1.5499682748605529e-08 -2.5349590691434348e-08 -4.3258805963002635e-08 -0.061202000488372647 -94.559718839999974 -158.71675115199997 77.626866652000004 109.98746742214213 0.0000000000000000 0.0000000000000000 0.0000000000000000 0.0000000000000000 3.3362059508331279 3.6967658659159501 1.3610578939472853 1.1668554771016555 2851.4161053755374 2851.5727800233944 1.1666453605828482 
-92.263571739122582 -159.96733304342911 68.545047484018014 -92.263571739122582 -159.96733304342905 68.545047484018014 -348.88706361391610 -0.00043811332486706414 0.00062261946080739076 -0.00015843348096111637 -214.03472743938076 2.1927046844893994e-09 3.2190428100875579e-10 1.4135878824816928e-05 -0.051450801994494616 -3.3705075960713792e-08 -5.0356488737124064e-08 -2.2491280612302567e-08 -0.0015565291212491822 -89.682139475999989 -158.46640519600001 82.438353807199988 112.88451412247700 0.0000000000000000 0.0000000000000000 0.0000000000000000 0.0000000000000000 3.3365440921490386 3.6974133424901026 1.3613685048433626 1.1668554771016562 2289.1500501838100 2289.1775382097994 1.1667770911800290 
-105.62694209197412 -156.37648635993486 73.198864429447625 -105.62694209197419 -156.37648635993486 73.198864429447639 -539.79439962838421 1.6560701256923455e-05 0.00011686422174744674 -7.0793863018423799e-05 0.0000000000000000 2.4778050722318312e-09 3.0722446808795212e-10 1.3644257840894623e-05 -0.083870159617199777 -4.5265165515571417e-08 1.5862164262457443e-08 1.9263631879431057e-07 0.0000000000000000 -102.70986659571734 -154.94403864466588 86.608986019839278 111.02505284862640 0.0000000000000000 0.0000000000000000 0.0000000000000000 0.0000000000000000 3.3356245104297964 3.6954452394797679 1.3603119034796765 1.1654512437408273 2802.0059926702525 2801.6064144900402 1.1663157637581358 
-103.26481133741035 -168.84412825065826 69.919468758818738 -103.26481133741029 -168.84412825065826 69.919468758818752 -362.60885745351919 -0.00038363595251023362 0.00031825991891699012 -0.00043269614789434775 0.0000000000000000 2.4274111609656757e-09 3.5823211064212051e-10 1.3990687389053846e-05 -0.054307907888319157 -6.3104674182073066e-09 1.1146097968182609e-08 -3.8283889759956069e-08 0.0000000000000000 -100.40706467681501 -167.17391327890167 83.670075146830683 105.53983917324770 0.0000000000000000 0.0000000000000000 0.0000000000000000 0.0000000000000000 3.3380278123462728 3.7010267954269165 1.3635207159852805 1.1667501777197284 2338.1188895151554 2338.1309799519722 1.1676985256867209 
-117.84809221595589 -100.16632940569656 84.316428603556915 -117.84809221595584 -100.16632940569659 84.316428603556915 -310.69765387080292 -1.1993849420265037e-05 -6.1220305539429667e-05 5.7279732685808873e-05 -263.91288908710203 2.7385360645837413e-09 7.7313266899636801e-11 1.2469818059912541e-05 -0.14122047804682597 -1.7685703974706171e-07 -2.6524538866985480e-07 -7.8964272246615177e-07 -0.086830829493182340 -114.62406224400000 -99.805851428000011 96.572263865600007 85.211636250682801 0.0000000000000000 0.0000000000000000 0.0000000000000000 0.0000000000000000 3.3361842150624881 3.6956485648374557 1.3598758927669972 1.1720716907564401 2275.7587662902592 2275.7069518904023 1.1661283235593471 
-114.22047854788603 -91.288819191246617 88.388185305005351 -114.22047854788600 -91.288819191246617 88.388185305005351 -321.87645922691200 2.0087948380765785e-05 -1.0407410821379357e-05 0.00020117591775568490 -332.43823677875832 2.6611393089126523e-09 4.1006975592949857e-11 1.2039684897047209e-05 -0.26688192502623709 3.5622723822746307e-07 8.6799469173713148e-07 4.4993025660758928e-09 -0.25708011069756964 -111.08756211600000 -91.097641973600034 100.22126851279998 99.535403830130534 0.0000000000000000 0.0000000000000000 0.0000000000000000 0.0000000000000000 3.3253237103665039 3.6725952668906339 1.3477469826148956 1.1691590710985442 2278.9605320973092 2278.9639610240442 1.1610158350757067 
-116.08407172047214 -97.974482709732143 97.499739505308654 -116.08407172047214 -97.974482709732158 97.499739505308682 -320.36227070929851 5.0931284231210471e-05 0.00024238761548790340 -0.00015988982020758273 -413.56665908298214 2.7008897340863314e-09 6.8346439618949275e-11 1.1077156454319947e-05 -0.13917097282388824 -4.6327318835836320e-08 -1.2253883690049785e-07 3.1850332354256741e-07 0.0012184187956661139 -112.90434805199999 -97.655804887999992 108.38681131359999 128.09762094244454 0.0000000000000000 0.0000000000000000 0.0000000000000000 0.0000000000000000 3.3249384767871053 3.6709507294811989 1.3464207768829295 1.1712360680116114 2421.2701099733363 2421.2665728411075 1.1605944142923583 
-110.18625654817271 -104.28013258870098 88.755185801223945 -110.18625654817274 -104.28013258870092 88.755185801223902 -360.40839244451865 1.1933729061902118e-05 -0.00020256521561764181 0.00026037185193115140 0.0000000000000000 2.5750672705271427e-09 9.4140251150065524e-11 1.2000915624810204e-05 -0.18477490878337166 3.4487426918073604e-07 -7.0554045172726855e-08 1.7314344694295308e-07 0.0000000000000000 -107.15466629968294 -103.84120130723400 100.55016500991876 102.24201981555134 0.0000000000000000 0.0000000000000000 0.0000000000000000 0.0000000000000000 3.3558333934153954 3.7423480620035710 1.3871701922398385 1.1780801053596550 2479.3699747628689 2479.3966109533926 1.1777239553807128 
-28.211418690527463 -115.67873784632121 92.026775526685256 -28.211418690527463 -115.67873784632125 92.026775526685299 1.5141894132252234 0.00038437214187114256 -0.00024824809011574517 -0.00016427195783761588 0.0000000000000000 -0.00039290596580450075 0.00075507490498442334 0.00011454893357667375 -0.20035158412404316 -1.2842900001289774e-07 3.2743333906636401e-06 -2.8965455781162884e-06 0.0000000000000000 -26.889884864405381 -115.37486796036181 103.37575244326078 96.382960025775517 0.0000000000000000 0.0000000000000000 0.0000000000000000 0.0000000000000000 3.4451964627544376 3.9369799305107551 1.4918249846333063 1.2094933614912740 2154.4035272838814 2154.4571580847983 1.2213504676232003 
-112.66210957584947 -104.05643863443902 146.38601905885173 -112.66210957584946 -104.05643863443902 146.38601905885167 -73.401031085641122 -1.5882203994039313e-05 -6.8752209773764475e-05 1.0967708206205641e-05 -67.458625152549644 2.6278921261280175e-09 9.3226093511589183e-11 5.9128964906562942e-06 0.085058220860606229 6.5178134100585360e-08 -4.6488933987465923e-08 5.0855873622346012e-07 0.21721422226555387 -109.56833416800004 -103.62177336400003 152.19744990400002 70.302883591683823 0.0000000000000000 0.0000000000000000 0.0000000000000000 0.0000000000000000 3.3195381455714124 3.6605023056614399 1.3413895787259851 1.1682184320513582 1825.4801598779841 1825.4835957895737 1.1582491238166193 