# For a description of the Tecplot format see the Tecplot User's guide.
#
Variables=x,y,z,s_u,s_v,s_w,s_p,mono_f_vel_u,mono_f_vel_v,mono_f_vel_w,const,u_nu,v_nu,w_nu,p_nu,x_nu,y_nu,z_nu,const,u_ref,v_ref,w_ref,vol_ref,x_ref,y_ref,z_ref,const,I1,I2,I3,J,p1,p2,p3
Zone f=fepoint, n=356, e=1130, et=brick, c=black
-67.3263 -97.7706 82.3583 -67.326317599694377 -97.770637581821561 82.358346385725582 -180.80800980898803 -1.7304802867258339e-05 9.6651816767289195e-06 2.4157162925504850e-05 2.9730789226530108e-20 8.6454433084748317e-08 4.6343637816192995e-09 0.00015720386647544163 0.0051552283215468521 3.6399010787553448e-10 -2.1818943217700634e-10 -4.4747531358680361e-11 -3.8777900840485082e-21 -65.754724465942431 -97.517594547729473 92.373562431030237 2074.8615187338191 0.0000000000000000 0.0000000000000000 0.0000000000000000 0.0000000000000000 3.2633094100878610 3.5418223101543411 1.2787615753475803 1.1308780311059299 1733.4605354979137 1758.4748383229967 1.1308234076989618 
-77.524600322205174 -131.32767037910824 67.640952778691798 -77.524600322205174 -131.32767037910824 67.640952778691812 -180.53529863517201 -3.4973951772698942e-05 -4.3746084458159388e-06 2.4595747527461331e-06 -166.16667990278967 9.7781283431297452e-08 1.4055854480332643e-08 0.00017648400616465665 0.0051531807540887223 6.9433666840195680e-10 3.1536842585747111e-11 -2.2522318591794078e-11 0.0049244011893319487 -75.747104543999981 -130.56019973999997 78.884476808000016 2128.8259272129790 0.0000000000000000 0.0000000000000000 0.0000000000000000 0.0000000000000000 3.2633818061316875 3.5419823430932591 1.2788497272053037 1.1308780311059299 1741.8204582006974 1702.6938189659197 1.1308623821643304 
-64.945805496788807 -122.42562083666078 59.301061773137334 -64.945805496788807 -122.42562083666077 59.301061773137342 -166.43352296592684 1.1477515323310095e-05 -8.3015320890960041e-07 4.2056433432840451e-06 -142.96302189557841 8.3810487799818021e-08 1.1556511303467687e-08 0.00018740946400797040 0.0050891684931309838 -2.1919897343959066e-10 -2.5259010415175214e-10 8.1160571501987008e-11 0.0043180458759766250 -63.422274742800013 -121.79461816400000 71.240629883439979 1237.7701333319521 0.0000000000000000 0.0000000000000000 0.0000000000000000 0.0000000000000000 3.2635292484944034 3.5422687976802014 1.2789882176011973 1.1308780311059297 1691.1979624388691 1682.1285012135306 1.1309235734340068 
-57.526044399266162 -132.87067196286159 65.193640388159380 -57.526044399266169 -132.87067196286162 65.193640388159366 -149.89087968284559 2.4914190693427421e-05 4.9242268260148264e-06 -1.6006767422472865e-05 -161.39458504910570 7.5569638019468131e-08 1.4489067945433476e-08 0.00017969004425921750 0.0047497387019743310 -3.1393254389880639e-10 5.1538045111688950e-11 4.1546680404742465e-10 0.0057137399792605978 -56.152318124399997 -132.07954718800002 76.641416164000006 2090.5778096190215 0.0000000000000000 0.0000000000000000 0.0000000000000000 0.0000000000000000 3.2631954491994462 3.5416058646543580 1.2786597008297886 1.1308780311059297 1684.1511610987559 1687.6033328063691 1.1307784800889351 
-125.64694847314962 -110.84081146658534 78.903902830269075 -125.64694847314965 -110.84081146658534 78.903902830269075 -231.73740540496556 -1.8558116910394377e-06 5.1536842482503363e-06 -2.7496812895086668e-05 -240.94735112535562 1.5122895882790921e-07 8.3039495279990660e-09 0.00016172927063351494 0.0056706321594286336 -3.9459975112714548e-11 -1.4906821239597491e-10 1.6665186085241668e-10 0.0057193875089624471 -122.89786571200003 -110.38740333199999 89.207425400000020 2092.2379289329847 0.0000000000000000 0.0000000000000000 0.0000000000000000 0.0000000000000000 3.2634679365260437 3.5421506459731722 1.2789316261129371 1.1308780311059288 1843.5028951190895 1843.9145318422848 1.1308985990442051 
-125.51625974447941 -129.23957531605788 83.567653198001366 -125.51625974447940 -129.23957531605788 83.567653198001366 -218.15828604148783 -2.6111642645518225e-06 3.0443828905301427e-06 -2.5896235958173259e-05 -233.98455177902531 1.5108381359874024e-07 1.3469597437421045e-08 0.00015561964546506601 0.0054923012132303368 -1.4991817407849082e-11 -1.3977194671639218e-10 8.2959925117861714e-11 0.0051867369534833912 -122.76981557999994 -128.50411506799998 93.481940963999989 2295.0048277193882 0.0000000000000000 0.0000000000000000 0.0000000000000000 0.0000000000000000 3.2634963475099976 3.5421982070848865 1.2789504898477977 1.1308780311059294 1813.1688170596353 1825.8239006849765 1.1309068894429219 
-89.350199005299032 -120.14927700705738 99.420503209319335 -89.350199005299103 -120.14927700705734 99.420503209319278 -183.58685775772250 -9.6134231450051556e-06 1.5210070505465597e-05 -2.5750349075318550e-05 -1.1366016582167484e-19 1.1091553067665849e-07 1.0917403869825650e-08 0.00013485203056617934 0.0050831792606305833 2.4753907585415479e-10 -3.2213624071497220e-10 1.7795217829968859e-10 1.2086577811184399e-20 -87.333945182495114 -119.55317056945796 108.01171823852533 1853.2119812635015 0.0000000000000000 0.0000000000000000 0.0000000000000000 0.0000000000000000 3.2632871423946930 3.5418081284059477 1.2787706041364053 1.1308780311059294 1752.0549853000559 1717.7756393201264 1.1308274531412468 
-124.62526846222461 -119.53599622238109 98.357745034551471 -124.62526846222462 -119.53599622238109 98.357745034551485 -195.75526081977611 -1.1986621738252051e-06 9.0593028110053905e-06 -1.3436198049346611e-05 -192.15889024926744 1.5009422385525720e-07 1.0745208056661681e-08 0.00013624426934910619 0.0052204512064735944 -3.7897534526092375e-12 -2.1235837486600186e-10 1.3721860116330112e-10 0.0052456942586944014 -121.89681335200000 -118.94929134799999 107.03765745040002 1571.7251237143605 0.0000000000000000 0.0000000000000000 0.0000000000000000 0.0000000000000000 3.2634029289620523 3.5419913305884103 1.2788364762664426 1.1308780311059303 1767.8150369040320 1779.8615786107057 1.1308565205894059 
-45.302436194089623 -164.90655585752916 116.48265448771562 -45.302436194089630 -164.90655585752924 116.48265448771559 -109.89686905789121 3.3169987219051929e-05 -3.7266360472059000e-05 1.3101662764636150e-05 0.0000000000000000 6.1993342043153987e-08 2.3483486488729003e-08 0.00011250020192932197 0.0039888812927933136 -8.1669229605544481e-10 9.0498161185875657e-10 -8.0523049542254767e-11 0.0000000000000000 -44.175503749389662 -163.62432261291502 123.64986896362305 1288.7765825848380 0.0000000000000000 0.0000000000000000 0.0000000000000000 0.0000000000000000 3.2629595544639973 3.5410570703692126 1.2783439823000295 1.1310973954788555 1599.6832026706286 1599.0306038752497 1.1306390622584634 
-16.013825191732280 -144.83937280567733 130.02610473704493 -16.013825191732280 -144.83937280567736 130.02610473704496 -110.22858924555030 7.6672059628408253e-06 -2.3699960930442732e-05 9.5585959055317395e-06 -108.76874052109594 2.9463585321520824e-08 1.7849408395775868e-08 9.4757956272673041e-05 0.0040143451315819440 -1.2737003148811005e-10 5.7251713549213313e-10 -1.3184969114030529e-10 0.0039812924015794190 -15.478227839600008 -143.86476845600004 136.06298808800005 1207.7015194609139 0.0000000000000000 0.0000000000000000 0.0000000000000000 0.0000000000000000 3.2621454740609241 3.5393737678539314 1.2774741579099060 1.1308042437479491 1615.9535882602331 1617.4627703720694 1.1302542087938465 
-45.302436194089623 -164.90655585752916 133.54480576611186 -45.302436194089594 -164.90655585752930 133.54480576611184 -140.66865269933604 3.5648046457910449e-06 -1.8002872484660835e-05 1.3401860629533435e-05 0.0000000000000000 6.1993342043153987e-08 2.3483486488729000e-08 9.0148373292464612e-05 0.0044631167785192279 -8.2315097344372039e-11 5.0621749110077734e-10 -2.2019117301539025e-10 0.0000000000000000 -44.175503749389669 -163.62432261291511 139.28801968872074 2260.0113226803110 0.0000000000000000 0.0000000000000000 0.0000000000000000 0.0000000000000000 3.2631667466171175 3.5415215110199192 1.2786029926461329 1.1308577886062612 1677.2685825864469 1674.9672137364112 1.1307533253392210 
-6.2197285342749922 -162.70724725567365 123.87515683010716 -6.2197285342749922 -162.70724725567365 123.87515683010719 -162.96254417869815 2.1883321573850502e-05 -1.9820151424542789e-05 9.1731466793421004e-06 -173.61348824273861 1.8585649769198298e-08 2.2866008864141918e-08 0.00010281584601656846 0.0046665040902017889 -4.5135626026032456e-10 5.0918458143131448e-10 -1.2947184944751303e-10 0.0046179777760499427 -5.8818733370400009 -161.45872929999999 130.42539591680000 1840.5999298976626 0.0000000000000000 0.0000000000000000 0.0000000000000000 0.0000000000000000 3.2635952918648807 3.5424196973743616 1.2790737315368792 1.1308780311059299 1718.7640014973661 1718.9093091233515 1.1309614110580761 
-10.198861638642750 -107.51133702483511 181.22527689526709 -10.198861638642752 -107.51133702483513 181.22527689526711 -181.12746330736715 -5.2559413866050508e-06 4.0255912387646156e-06 9.7663861035267811e-06 -183.92064093120439 2.3005122778974041e-08 7.3691643898143874e-09 2.7685809062205635e-05 0.0049039625946154294 2.2848803016892538e-11 -1.2291362073455186e-10 -6.0401079975270359e-11 0.0049983229371637671 -9.7806680107999995 -107.10896956400003 182.98909712000000 1021.2952016557671 0.0000000000000000 0.0000000000000000 0.0000000000000000 0.0000000000000000 3.2634251473970397 3.5420603817621901 1.2788840324996364 1.1308780311059290 1746.7500947987116 1746.0651302175897 1.1308775457133857 
-18.144379832696494 -109.06339490109163 192.57755314044923 -18.144379832696497 -109.06339490109164 192.57755314044923 -190.84690385727660 -8.2953218169399054e-06 4.5337582376988578e-06 4.8341303912931562e-06 -196.13524347116700 3.1829910124292482e-08 7.8049249285783146e-09 1.2814054073828626e-05 0.0049549057218398630 5.7145423861705237e-11 -1.5101940308404758e-10 -4.7741377805768352e-11 0.0051031410284542323 -17.565766725200003 -108.63723447200002 193.39391677600000 1230.2822850381203 0.0000000000000000 0.0000000000000000 0.0000000000000000 0.0000000000000000 3.2634156192645483 3.5420400054088033 1.2788731455330338 1.1308780311059297 1768.6464049112615 1768.0415135427461 1.1308727295710705 
-45.302436194089623 -120.14927700705738 167.66910832290444 -45.302436194089651 -120.14927700705736 167.66910832290466 -184.65223711265131 7.9134131262989212e-07 1.1910912145958313e-05 1.4939604671399598e-05 0.0000000000000000 6.1993342043153974e-08 1.0917403869825650e-08 4.5444716011644453e-05 0.0049280516492282607 5.0760735952435106e-12 -2.5914225276626401e-10 -2.1635912460787598e-11 0.0000000000000000 -44.175503749389591 -119.55317056945772 170.56432113891603 1872.3464537223574 0.0000000000000000 0.0000000000000000 0.0000000000000000 0.0000000000000000 3.2634812812098293 3.5421757988344837 1.2789433822708827 1.1308780311059303 1753.1060767690838 1754.5644255045756 1.1309038218076457 
-9.7407849791990007 -125.06862830666952 187.63583041515659 -9.7407849791990007 -125.06862830666954 187.63583041515656 -182.98012755109474 -3.9116324279107111e-06 -4.4747095381003855e-06 7.6783117651604967e-06 -182.71968801715849 2.2496354529222273e-08 1.2298556395506923e-08 1.9287829719161213e-05 0.0048993337064282853 -3.8456150869865351e-11 8.7037039671953599e-11 -6.2719447038363617e-11 0.0049409976779760589 -9.3318398883999993 -124.39710846400000 188.86462832000004 1016.3527334425750 0.0000000000000000 0.0000000000000000 0.0000000000000000 0.0000000000000000 3.2634114290934382 3.5420313459837187 1.2788686682805037 1.1308780311059292 1751.0289685771224 1751.0901450237873 1.1308707481285636 
-45.302436194089623 -164.90655585752916 99.420503209319335 -45.302436194089623 -164.90655585752927 99.420503209319293 -138.42957487879502 1.0638088253200411e-05 -5.1805860934585155e-05 -4.2158027802691835e-05 6.1083685609023889e-19 6.1993342043154000e-08 2.3483486488729000e-08 0.00013485203056617934 0.0043397463361146450 -2.4369797870162882e-10 1.1955373051637436e-09 2.7994109661399257e-10 -6.4305612256786849e-20 -44.175503749389662 -163.62432261291499 108.01171823852535 1450.3671205666894 0.0000000000000000 0.0000000000000000 0.0000000000000000 0.0000000000000000 3.2646291714936622 3.5447028308321085 1.2803285934133237 1.1313137683378107 1672.5137955982402 1672.0435269892212 1.1315159475655650 
-62.630438417484726 -162.19551906454626 75.407447391056962 -62.630438417484719 -162.19551906454626 75.407447391056948 -191.63423895601534 -1.7249904837560076e-05 -4.4981528007757120e-05 -1.1546577732443214e-05 -197.91654567727889 8.1238898635982450e-08 2.2722327353008609e-08 0.00016630971137487904 0.0049644145531112863 3.3765117265064109e-10 9.0190874036354000e-10 3.9767245856757312e-10 0.0054449952672233660 -61.153654769600031 -160.95484587600001 86.002782780800032 1645.6757988676138 0.0000000000000000 0.0000000000000000 0.0000000000000000 0.0000000000000000 3.2624499642039946 3.5401197267969540 1.2779198495012669 1.1306683814178431 1773.2922805324408 1773.7390136680692 1.1304511649335858 
-45.360809505544786 -169.35199205935336 72.432790657400304 -45.360809505544800 -169.35199205935336 72.432790657400318 -212.96824001679104 1.6976407662980958e-06 -4.6900424499984353e-05 -7.7865028700309891e-06 -185.16439488788893 6.2058169630896400e-08 2.4731570347213957e-08 0.00017020658326671878 0.0051786936804555381 9.2887972234697148e-12 9.7031934655266298e-10 2.8427191761289868e-10 0.0052670042729885307 -44.232698507600013 -168.00161050399998 83.276389748800028 1737.4139093181343 0.0000000000000000 0.0000000000000000 0.0000000000000000 0.0000000000000000 3.2633985580457856 3.5419748220917957 1.2788241205248878 1.1308780311059297 1801.5715778523963 1801.9083468845938 1.1308510817877677 
-45.302436194089623 -187.28519528276502 99.420503209319335 -45.302436194089587 -187.28519528276502 99.420503209319236 -220.79806777356416 -1.5014293013012714e-06 -2.3494233466442138e-05 -2.0389924947432584e-05 -4.4748396339331966e-20 6.1993342043154000e-08 2.9766513476303651e-08 0.00013485203056617934 0.0052677520339657301 8.0860542670787922e-11 5.6728708726779604e-10 3.5080407361300619e-11 4.7402228413689841e-21 -44.175503749389676 -185.65989863464350 108.01171823852533 1616.4576808433910 0.0000000000000000 0.0000000000000000 0.0000000000000000 0.0000000000000000 3.2631353913530203 3.5414494336220499 1.2785617290449944 1.1308199337756992 1819.5541682651092 1820.4157945123138 1.1307350087869634 
-89.350199005299032 -142.52791643229327 133.54480576611186 -89.350199005299103 -142.52791643229324 133.54480576611189 -174.10314946195547 -7.9367283531827774e-06 -4.4473397587984838e-06 6.4018282680223184e-06 0.0000000000000000 1.1091553067665849e-07 1.7200431079444911e-08 9.0148373292464598e-05 0.0048864120519972153 1.9779413861820064e-10 9.8017349269071813e-11 -5.5351770510052854e-11 0.0000000000000000 -87.333945182495100 -141.58874659118649 139.28801968872074 1877.7986991733408 0.0000000000000000 0.0000000000000000 0.0000000000000000 0.0000000000000000 3.2628374277141603 3.5407988262113146 1.2782083164314550 1.1305883044610801 1734.9885890567234 1736.5921231739478 1.1305784529957561 
-67.326317599694335 -164.90655585752916 133.54480576611186 -67.326317599694406 -164.90655585752933 133.54480576611181 -158.65506119623626 -1.7768598401889784e-05 -6.5962059391818767e-06 1.1020483983133284e-05 -6.7079557709976008e-21 8.6454433084748317e-08 2.3483486488729000e-08 9.0148373292464612e-05 0.0046844322912529095 4.3384898108424173e-10 2.0750049605203854e-10 -1.4179059783916660e-10 5.3469423982929421e-22 -65.754724465942374 -163.62432261291517 139.28801968872077 2018.1238718776010 0.0000000000000000 0.0000000000000000 0.0000000000000000 0.0000000000000000 3.2627563472889149 3.5406457644135934 1.2781363988838896 1.1307597988864997 1706.3274099908097 1705.2124856976025 1.1305470072498089 
-89.350199005299032 -164.90655585752916 116.48265448771562 -89.350199005299103 -164.90655585752930 116.48265448771556 -184.38230720581859 -1.2576118348406595e-05 -9.5121114281816652e-06 -7.3341174350472166e-06 0.0000000000000000 1.1091553067665849e-07 2.3483486488729000e-08 0.00011250020192932196 0.0049765443714440243 3.0136107554350271e-10 2.1494096208006109e-10 5.6296598896469373e-11 0.0000000000000000 -87.333945182495114 -163.62432261291505 123.64986896362312 1549.0027140339625 0.0000000000000000 0.0000000000000000 0.0000000000000000 0.0000000000000000 3.2637321250673028 3.5426975736445203 1.2792146199080749 1.1309118725194198 1755.9916952134956 1757.6697344836009 1.1310236075306224 
-89.350199005299032 -142.52791643229327 116.48265448771561 -89.350199005299103 -142.52791643229321 116.48265448771556 -155.49738342429740 -3.2576314566077262e-05 -1.4133054412642305e-05 2.6194624439355177e-06 0.0000000000000000 1.1091553067665848e-07 1.7200431079444911e-08 0.00011250020192932199 0.0046618430975801156 7.8293401046760022e-10 2.9601679876470030e-10 4.3961628956837902e-11 0.0000000000000000 -87.333945182495086 -141.58874659118649 123.64986896362313 1389.1126189879024 0.0000000000000000 0.0000000000000000 0.0000000000000000 0.0000000000000000 3.2627573135305701 3.5405016632420434 1.2779869950863727 1.1308063975164482 1695.7200702647392 1686.3874850148206 1.1304814276712920 
-46.345628352439270 -110.78628305277668 34.868415207504349 -46.345628352439277 -110.78628305277668 34.868415207504356 -270.35631957956275 8.5022945739831897e-06 1.4707240806964679e-05 -1.9977496100356229e-05 -270.93899435110956 6.3151970347563591e-08 8.2886455476938165e-09 0.00021941681878701047 0.0062178991891420985 8.8968396174378018e-11 -1.1148595099964501e-10 3.1679391828580641e-10 0.0060043259625745657 -45.197633928000002 -110.33371083599998 48.847122559999995 1069.0094105005942 0.0000000000000000 0.0000000000000000 0.0000000000000000 0.0000000000000000 3.2634320898107059 3.5420743453317054 1.2788910469887864 1.1308780311059299 1902.7220969290113 1902.9941120122760 1.1308806484969671 
-58.517374228048446 -99.104752478767210 32.008654199519377 -58.517374228048467 -99.104752478767239 32.008654199519363 -300.50664798675382 -1.0280741136723386e-05 1.6194614705188150e-05 -2.6706997138418928e-05 -302.80913751536167 7.6670673282430726e-08 5.0089197234370886e-09 0.00022316317450332690 0.0065950729976590123 3.7113986301958645e-10 -8.4640495240527384e-11 2.9646889905966250e-10 0.0069988408850629093 -57.123633070400032 -98.831257531200038 46.226036100800002 1475.5774262919704 0.0000000000000000 0.0000000000000000 0.0000000000000000 0.0000000000000000 3.2634272878207189 3.5420641304891793 1.2788856195029359 1.1308780311059297 1958.5167414227981 1958.9840699614872 1.1308782510768394 
-61.595530042781895 -105.96566621802819 44.048349652589920 -61.595530042781895 -105.96566621802820 44.048349652589913 -252.63362774698462 9.3469908946420116e-07 5.0388261314603039e-05 -4.9851543771557365e-05 -176.51173700907700 8.0089466530930409e-08 6.9352015241719300e-09 0.00020739088382271120 0.0060541628723299054 3.6923080666247886e-10 -4.4428601727350799e-10 9.6646804733839880e-10 0.0076414655113993535 -60.139641125599979 -105.58699381199996 57.260903223199996 1724.6135661994952 0.0000000000000000 0.0000000000000000 0.0000000000000000 0.0000000000000000 3.2634153808904851 3.5420394375442301 1.2788728195491887 1.1308780311059297 1864.4072475216924 1861.4281186056467 1.1308725972831710 
-20.022554180052872 -88.222730472817943 44.526422859306756 -20.022554180052875 -88.222730472817958 44.526422859306756 -258.19220320902747 -7.3281352055025945e-06 5.5127133937898527e-06 -3.8390061249529330e-05 -262.04783095443327 3.3915927816208224e-08 1.9536787743135164e-09 0.00020676459641677528 0.0060885959031958484 6.0435874618598591e-11 -3.6568399931194114e-10 4.0848616866814334e-11 0.0060956830715996665 -19.406020858399991 -88.116056368799974 57.699076624800000 1439.6451283969650 0.0000000000000000 0.0000000000000000 0.0000000000000000 0.0000000000000000 3.2634213617674699 3.5420516654806184 1.2788790675582506 1.1308780311059299 1885.7056722088821 1887.2073810773434 1.1308753583214082 
-60.204337736996543 -180.10352718974090 67.499884260247867 -60.204337736996543 -180.10352718974084 67.499884260247867 -258.99734918912787 -5.9088888651523372e-06 -8.6978897775474178e-06 -1.2409130432416484e-05 -268.82007117914088 7.8544318743434247e-08 2.7750172604257273e-08 0.00017666880930633513 0.0056853716187079918 1.4416221717674278e-10 3.8281162774645539e-11 3.3682016821547959e-10 0.0062599354703560435 -58.776536899199989 -178.58832514800000 78.755181813599989 1584.4809985467919 0.0000000000000000 0.0000000000000000 0.0000000000000000 0.0000000000000000 3.2638086696123683 3.5428782408736854 1.2793198647963515 1.1308780311059303 1889.2557115953705 1889.3163347394177 1.1310703516629506 
-76.214420017286102 -186.55694589811645 60.375905181506738 -76.214420017286102 -186.55694589811648 60.375905181506717 -270.77203029749063 -3.5759537261748312e-06 -7.6273345343209704e-06 -3.5465329060689264e-06 -272.19355107925605 9.6326119886080961e-08 2.9562046810482915e-08 0.00018600139328839307 0.0058569240205445490 3.3892060750000040e-11 3.2876112049487487e-11 1.0570732272596100e-10 0.0057010010670410427 -74.463376691600018 -184.94281327599995 72.225767276240006 1182.3928641350060 0.0000000000000000 0.0000000000000000 0.0000000000000000 0.0000000000000000 3.2633773721097348 3.5419317321175185 1.2788020120555708 1.1308780311059305 1909.9762146561659 1909.8508501613371 1.1308412299656674 
-71.390420402065843 -213.61743388582036 76.050610521414129 -71.390420402065843 -213.61743388582042 76.050610521414129 -263.75091215541414 1.0286284076562242e-06 1.6659825245720201e-06 -1.1936396014978138e-05 -263.50854750775562 9.0968283489312185e-08 3.7159580967838224e-08 0.00016546715220400190 0.0057397726749556935 -4.2570785650183763e-12 1.4604824347303043e-11 7.8592089651867534e-11 0.0057656539566043738 -69.736773305200003 -211.58846536000007 86.592267764799999 1391.6778601551057 0.0000000000000000 0.0000000000000000 0.0000000000000000 0.0000000000000000 3.2635075519847758 3.5422616669285918 1.2790041394488194 1.1308780311059305 1893.0341194255382 1892.5616388730452 1.1309307225074003 
-88.819380733891364 -209.23571358459463 80.104834994265502 -88.819380733891393 -209.23571358459461 80.104834994265502 -255.96214316440850 7.4040333893519096e-06 -3.5303348497464249e-06 -1.3793649523130845e-05 -272.21692398782392 1.1032597205251626e-07 3.5929342834251088e-08 0.00016015602060903689 0.0056897568579031077 -9.6588708435861256e-11 7.0941565534304490e-11 -8.7425043144256192e-11 0.0057577998201830414 -86.813844096400004 -207.27391660800001 90.308128229600001 1955.0875990986240 0.0000000000000000 0.0000000000000000 0.0000000000000000 0.0000000000000000 3.2636995886391067 3.5426456580582717 1.2791959575730441 1.1308780311059297 1889.2870680420237 1889.0386873276186 1.1310155452850201 
-76.122806561761010 -214.62983205828172 91.396160103599755 -76.122806561761010 -214.62983205828172 91.396160103599755 -246.40046347944494 -6.2225741641305812e-07 7.0172475339225682e-07 -4.1694335395870845e-06 -251.82154930722663 9.6224362838848192e-08 3.7443820710691966e-08 0.00014536411308441188 0.0055606478365645808 9.7218755619021306e-12 -8.4973743924836677e-12 5.1883338233330242e-11 0.0056253749756990448 -74.373612905599998 -212.58534351999998 100.65708370800000 988.41240310934302 0.0000000000000000 0.0000000000000000 0.0000000000000000 0.0000000000000000 3.2636983425952444 3.5426771820459022 1.2792299234002829 1.1308780311059292 1871.1573393099000 1869.4851153898358 1.1310306248940765 
-67.326317599694335 -187.28519528276502 99.420503209319335 -67.326317599694406 -187.28519528276502 99.420503209319236 -223.31581794905773 2.4800590131317861e-06 -1.7685599757537075e-05 -2.1998205737776284e-05 -2.8766545871437231e-19 8.6454433084748330e-08 2.9766513476303658e-08 0.00013485203056617934 0.0053369432794877483 5.3121555818283882e-12 4.2385889081042477e-10 4.5465482835886697e-11 3.0214156418155732e-20 -65.754724465942374 -185.65989863464350 108.01171823852535 1808.0980320372519 0.0000000000000000 0.0000000000000000 0.0000000000000000 0.0000000000000000 3.2623925998097847 3.5397546972221412 1.2776031552146274 1.1305915580338548 1820.0389436803175 1820.1527156481329 1.1303107671487804 
-85.397812842758483 -210.33934198785133 100.52593669172299 -85.397812842758498 -210.33934198785136 100.52593669172300 -231.97099992582216 3.7188674024038587e-06 -3.5340372393984787e-06 -1.6893078804116338e-05 -227.67805269017032 1.0652575901937134e-07 3.6239212741762117e-08 0.00013340388610671994 0.0054357621318023869 -7.0289231729377193e-11 3.6204802805432110e-11 1.5785931232761199e-10 0.0054324530600773730 -83.461357431600007 -208.36062644399999 109.02489266960001 1287.0831768928649 0.0000000000000000 0.0000000000000000 0.0000000000000000 0.0000000000000000 3.2637948319068468 3.5428689500921737 1.2793250496626758 1.1308780311059290 1834.3294370914882 1835.0940656369746 1.1310726162385676 
-42.631854349090858 -130.80574194274044 53.315536673458048 -42.631854349090865 -130.80574194274047 53.315536673458048 -204.31988333908652 1.2813733218676322e-05 8.3305036664958595e-06 -2.4648370119383670e-05 -208.46955553769945 5.9027225801644427e-08 1.3909314811044736e-08 0.00019525064588421512 0.0053978766034132658 -7.5764339773060172e-11 4.1122358672029240e-11 5.0145750572671859e-10 0.0058994487313801993 -41.558840772800004 -130.04627243999997 65.754654395919971 2180.9238908936368 0.0000000000000000 0.0000000000000000 0.0000000000000000 0.0000000000000000 3.2635003830244789 3.5422188978927589 1.2789674835616442 1.1308780311059294 1796.9668741636440 1800.2822316137256 1.1309144052743680 
-23.474322144235970 -135.27306804046989 42.570062928141120 -23.474322144235970 -135.27306804046989 42.570062928141120 -238.56479550251916 8.0162641154571600e-06 3.9841546835545448e-06 -9.5904151572607637e-06 -239.92660004135269 3.7749677744836057e-08 1.5163567956832935e-08 0.00020932747499813331 0.0057758711172775663 -3.9386462494821555e-11 4.1730763305574201e-11 9.9447521846252761e-11 0.0057226876295007187 -22.788097858800000 -134.44511465599999 55.905993737599999 935.86986824075086 0.0000000000000000 0.0000000000000000 0.0000000000000000 0.0000000000000000 3.2633860220144908 3.5419761544009023 1.2788387776265584 1.1308780311059297 1847.0305351480963 1862.7871284590287 1.1308575677271138 
-11.469619543140283 -103.95021215379286 49.337520744559882 -11.469619543140283 -103.95021215379285 49.337520744559896 -235.30040958431113 -6.4340947800557238e-06 -3.3882962439608766e-06 -3.3946914255039422e-05 -230.81652003468747 2.4416505761681861e-08 6.3693421648025597e-09 0.00020046194244827120 0.0057538082007870979 1.8296582097060367e-11 -1.9705466298508835e-10 6.3050313745401154e-11 0.0057075315030939849 -11.025769398400001 -103.60243655599999 62.108642139439993 1284.9349949311236 0.0000000000000000 0.0000000000000000 0.0000000000000000 0.0000000000000000 3.2634078740119055 3.5420232857634777 1.2788641472438951 1.1308780311059294 1850.4052050001528 1853.9597420566793 1.1308687698591997 
-29.808362939239714 -141.69064289641173 58.025195907690367 -29.808362939239714 -141.69064289641173 58.025195907690367 -203.09444768420542 9.5212103202252122e-06 1.2348775631476943e-05 -2.7222744921597034e-05 -200.46915163775745 4.4784655123253352e-08 1.6965352900299994e-08 0.00018908087898950041 0.0053211968518722796 -9.3736220411758637e-11 5.5848803387842643e-11 4.5605311231975543e-10 0.0059397702508078385 -28.994254794799993 -140.76430841599998 70.071247290159988 2176.9829965296321 0.0000000000000000 0.0000000000000000 0.0000000000000000 0.0000000000000000 3.2635417079348659 3.5423094926753125 1.2790169746335367 1.1308780311059292 1784.2945516094774 1789.0046914410707 1.1309362491641897 
-105.75383480588357 -195.80990294271368 84.176982851448017 -105.75383480588357 -195.80990294271371 84.176982851448003 -242.64262816749726 -2.1239541261669016e-06 -2.7813259453608985e-07 -1.2146452300272069e-05 -253.72518606854240 1.2913443350748288e-07 3.2159919838292688e-08 0.00015482140895528573 0.0055949482598684199 2.6153581333494156e-11 -6.0432446684698321e-11 -4.2786646783998514e-12 0.0055522849283166434 -103.40639267600000 -194.05392295999994 94.040416199999996 2662.2783756828549 0.0000000000000000 0.0000000000000000 0.0000000000000000 0.0000000000000000 3.2636399509476139 3.5425446499107336 1.2791552291015449 1.1308780311059292 1859.0618706254672 1859.0712815621191 1.1309975586854157 
-84.425321705086731 -163.56301923252738 66.459790122148974 -84.425321705086787 -163.56301923252747 66.459790122148945 -247.76309854108641 -1.5479599633856175e-05 -1.4731311841317664e-05 -2.1287594615586307e-05 -245.50604914263317 1.0544565656744885e-07 2.3106271340722628e-08 0.00017803135764893341 0.0056807952852315326 1.8301766815309462e-10 1.6620157572221542e-10 6.0544062939441295e-10 0.0067733705287321899 -82.508500824799995 -162.30138233600007 77.801893530400037 2229.3857910936085 0.0000000000000000 0.0000000000000000 0.0000000000000000 0.0000000000000000 3.2638115144278244 3.5428877531597194 1.2793265329517707 1.1308780311059297 1866.9882510247241 1867.9838631016389 1.1310733358873115 
-28.784532297645406 -125.74393686336640 120.74819230731468 -28.784532297645427 -125.74393686336636 120.74819230731465 -86.097927234295156 -1.0731670980323357e-05 2.3999524794843419e-06 3.3696732843475754e-05 -9.7966880205083253e-20 4.3647526953849436e-08 1.2488154288448072e-08 0.00010691224477099581 0.0036768375993352551 3.4102819965962919e-10 -6.2638758562131326e-11 -3.3782737050184389e-10 9.0541305941319865e-21 -27.991095225219734 -125.06206457489009 127.55940664489751 1124.7619503421174 0.0000000000000000 0.0000000000000000 0.0000000000000000 0.0000000000000000 3.2630941948296335 3.5413156138464035 1.2784676978894256 1.1309936923327963 1565.5267723934951 1565.6021133354898 1.1306932957051357 