# For a description of the Tecplot format see the Tecplot User's guide.
#
Variables=x,y,z,s_u,s_v,s_w,s_p,mono_f_vel_u,mono_f_vel_v,mono_f_vel_w,const,u_nu,v_nu,w_nu,p_nu,x_nu,y_nu,z_nu,const,u_ref,v_ref,w_ref,vol_ref,x_ref,y_ref,z_ref,const,I1,I2,I3,J,p1,p2,p3
Zone f=fepoint, n=3174, e=16683, et=brick, c=black
-24.9198 -154.186 112.069 -24.919804900528678 -154.18626120259009 112.06905957738876 -3.1806921541516258 -2.8470086277129894e-07 -6.3661055001834851e-06 5.5470896155774308e-06 3.2736006603761680 3.4165625346221909e-09 3.0781850332561866e-09 6.1406094692406644e-07 -0.00016050189151179973 8.6490062638729291e-10 3.3917830612260198e-09 2.0532485852444268e-09 0.00014440325463837083 -24.903554063199991 -154.16086777200002 112.24023381839994 89.724962256112903 0.0000000000000000 0.0000000000000000 0.0000000000000000 0.0000000000000000 3.0054999014186738 3.0110063855263842 1.0055064854164804 1.0030061794484249 32.095995950410490 32.096127073185777 1.0027494168982547 
-37.463644879094993 -155.13462119541273 114.76331378414109 -37.463644879094993 -155.13462119541276 114.76331378414113 -3.3907113592900080 6.0542532375771406e-06 9.7409778545129690e-06 -1.9599728483275557e-06 0.0000000000000000 3.5049450391896488e-07 -7.9996400874122893e-08 8.7733715596688636e-07 1.4524331928008279e-06 -1.1040420991552528e-10 -6.2311513712654658e-10 1.0685062167488915e-09 0.0000000000000000 -37.438273663334591 -155.10473791080037 114.93291110338620 89.036758072416930 0.0000000000000000 0.0000000000000000 0.0000000000000000 0.0000000000000000 3.0081150762900832 3.0162502392922663 1.0081351769230613 1.0038329576774714 51.567872283349736 51.567630701474172 1.0040594886608420 
-31.561916641720526 -147.90227831233722 119.70465309321574 -31.561916641720504 -147.90227831233730 119.70465309321573 -3.5087059946320198 -3.8453275391357340e-06 7.8127886730281103e-06 -7.1929775717915483e-07 0.0000000000000000 4.0570002947382111e-09 2.8129359952444588e-09 5.6213140831040675e-07 -0.00013179267334517642 2.4970791980073446e-10 -9.9103565228255215e-10 -7.1201551018162151e-10 0.0000000000000000 -31.542619574254449 -147.87907313389167 119.86135157363466 98.260374494724786 0.0000000000000000 0.0000000000000000 0.0000000000000000 0.0000000000000000 3.0063949855409313 3.0128013517770014 1.0064063725885708 1.0032782658873414 45.148734729296628 45.149828500344732 1.0031979641376303 
-28.665624536830261 -142.98887578497303 111.95312690987276 -28.665624536830254 -142.98887578497303 111.95312690987279 -3.1202124747095010 -1.3527924411085071e-05 -4.5734055462906187e-07 9.4283262412702609e-06 0.0000000000000000 3.7777393314258881e-09 2.6055343160802380e-09 6.1484939700706665e-07 -0.00034540945962951969 1.8126385381770157e-09 -1.4305314430448279e-09 -1.1563091343611278e-09 0.0000000000000000 -28.647655777685479 -142.96738158566356 112.12452093910819 112.69127588814607 0.0000000000000000 0.0000000000000000 0.0000000000000000 0.0000000000000000 3.0068243169764020 3.0136604462463477 1.0068361348817800 1.0034148781926475 42.178579841399220 42.178695375469360 1.0034121867711230 
-24.277816602653594 -200.47367164597426 73.482218285603764 -24.277816602653591 -200.47367164597426 73.482218285603764 -151.31086024515616 -5.5889655753545404e-06 5.4436052764181301e-06 -5.2897736084047078e-06 -147.38069180176458 3.3546630247988096e-09 5.0320652922319917e-09 8.7648937502349256e-07 0.00060984065022135934 2.5911415032869699e-10 -9.5552888701272255e-10 3.7423094832340726e-10 0.00075163726851133349 -24.261860196399997 -200.43215969199997 73.726546483199982 142.71380061529433 0.0000000000000000 0.0000000000000000 0.0000000000000000 0.0000000000000000 3.0054724728803626 3.0109519724240177 1.0054795021321692 1.0027083032349493 290.15313792551598 290.15207401509838 1.0027360249177748 
-24.173306238119196 -187.67613321430318 75.068561466657371 -24.173306238119199 -187.67613321430321 75.068561466657357 -151.57439454818285 7.2709449705688677e-06 -1.9440463715293919e-06 2.5136642681067932e-06 -156.63155370521241 3.3445852285624014e-09 4.4918488650846911e-09 8.6570068436042668e-07 0.00024831022443885141 3.0183791662726251e-10 1.2034681932113596e-09 3.7531358053423444e-10 0.00086198481401522447 -24.157397762799999 -187.63907770800003 75.309882232799993 165.73632395326644 0.0000000000000000 0.0000000000000000 0.0000000000000000 0.0000000000000000 3.0054298242942621 3.0108662915410784 1.0054364694664191 1.0027083032349509 301.61663403246718 301.61419105150196 1.0027145191280178 
-34.906373187821835 -195.45109189214907 81.367299669485774 -34.906373187821835 -195.45109189214895 81.367299669485831 -142.98147833040929 1.6752833722371497e-05 -2.1833620991985403e-06 -8.9882714895948535e-07 0.0000000000000000 4.3794741964864325e-09 4.8200463342862321e-09 8.2286307917511792e-07 -0.00036692697478982677 1.2423724048607608e-10 2.1199794204061058e-09 2.9534331865122431e-09 0.0000000000000000 -34.885542273181727 -195.41132893576267 81.596679120775832 139.46796289390394 0.0000000000000000 0.0000000000000000 0.0000000000000000 0.0000000000000000 3.0051754014595660 3.0103568748913392 1.0051814755620605 1.0025093066932691 286.73188392883270 286.74044932796647 1.0025873534336325 
-18.836061649224433 -194.56915584417632 81.183226576565829 -18.836061649224447 -194.56915584417644 81.183226576565815 -151.67548827137117 -6.1068989118391817e-07 1.5479946563669022e-05 1.0237617183395100e-05 0.0000000000000000 2.8299639680262612e-09 4.7828205146371863e-09 8.2411495638812237e-07 0.00060480376689770463 -3.2062266077646729e-10 -4.8513959756860942e-10 -2.7302405489970644e-10 0.0000000000000000 -18.822600960987238 -194.52970000168264 81.412954998504986 111.95285379220412 0.0000000000000000 0.0000000000000000 0.0000000000000000 0.0000000000000000 3.0054731132029953 3.0109531184058231 1.0054800077375463 1.0027083032349509 305.63767237659619 305.63757517387040 1.0027362811667144 
-22.679205319165753 -103.21555340889181 42.936443863944632 -22.679205319165757 -103.21555340889179 42.936443863944639 -84.595229210085989 -1.0454678719465706e-05 1.5472730202622682e-05 -1.5299173314055047e-05 -88.248237303666983 3.2005225726605691e-09 9.2660850520287517e-10 1.0842306490954634e-06 0.00040574737087126114 1.1057492229489097e-10 -1.6054719573023677e-10 2.2412066711132013e-10 0.00042657681375422076 -22.663982073999996 -103.20790935200000 43.238681550399988 69.202643319072678 0.0000000000000000 0.0000000000000000 0.0000000000000000 0.0000000000000000 3.0054081414505949 3.0108230417010100 1.0054149026702854 1.0027083032349511 182.57739284015679 182.56556747265287 1.0027037969170551 
-30.170319534394217 -110.78338632420424 46.693641300841676 -30.170319534394213 -110.78338632420424 46.693641300841684 -78.261179883970541 -1.0157269033544013e-06 1.5689269857996434e-05 -1.5670373979136607e-05 -73.195161455631975 3.9228239528260600e-09 1.2460636272804138e-09 1.0586780153087896e-06 0.00039127794610970901 7.2565647609429545e-11 -1.0094806168098215e-10 1.6940125307131596e-11 0.00026779799968297422 -30.151660686400003 -110.77310694400001 46.988755992800002 74.715282964229786 0.0000000000000000 0.0000000000000000 0.0000000000000000 0.0000000000000000 3.0054357417044351 3.0108782798339111 1.0054425405649146 1.0027083032349513 164.75316422086024 164.74969840327273 1.0027175801388837 
-18.748570876891854 -103.57481748232141 49.719040242753344 -18.748570876891851 -103.57481748232136 49.719040242753344 -74.369440013422135 -8.9564936129155281e-06 8.4485190517499277e-06 -1.5061687047727726e-05 -75.491550106862192 2.8215300356543294e-09 9.4177012022189643e-10 1.0381023288208446e-06 0.00035880402821217403 -2.2425492271159258e-11 1.5629257949934797e-11 2.3435497175869404e-11 0.00039733578825839152 -18.735150314000002 -103.56704831999998 50.008419303199993 79.719497061372692 0.0000000000000000 0.0000000000000000 0.0000000000000000 0.0000000000000000 3.0054099546752915 3.0108266571461013 1.0054167048841947 1.0027083032349502 161.64505263377069 161.63950921860558 1.0027046939123108 
-25.508400013173564 -98.493588926020195 50.694708598064970 -25.508400013173556 -98.493588926020180 50.694708598064977 -75.995762940137539 1.5383007440416519e-06 3.9260385781938343e-07 -3.2615912483618015e-05 0.0000000000000000 3.4733159334776605e-09 7.2728298383673007e-10 1.0314668291155904e-06 0.00028799584725263446 -7.0290373237015382e-11 1.5992130151052196e-10 3.0347179908141268e-11 0.0000000000000000 -25.491879232152165 -98.487589184379729 50.982237960580505 72.292163684038698 0.0000000000000000 0.0000000000000000 0.0000000000000000 0.0000000000000000 3.0054242825818083 3.0108553984906283 1.0054311183780269 1.0027083032349506 167.22716140382414 167.21692252844272 1.0027118834172013 
-25.309898308395919 -104.23450566465095 108.57922736889464 -25.309898308395912 -104.23450566465091 108.57922736889471 -7.8270537918041452 -2.4508606756185076e-06 2.2311235585099823e-05 -1.7132571139658891e-05 0.0000000000000000 4.3743534030727694e-07 1.5694591067681720e-07 9.9483568562095154e-07 0.00082939678016240499 5.4411220448773951e-11 3.1238950085495390e-09 2.1445087002166333e-09 0.0000000000000000 -25.283559732051039 -104.23282252886388 108.75695162467670 96.378087069502698 0.0000000000000000 0.0000000000000000 0.0000000000000000 0.0000000000000000 3.0074157885740269 3.0148425593507957 1.0074267659313036 1.0036630217077143 49.898484026964510 49.898503689955909 1.0037063626206868 
-25.939527306907571 -118.01627787145870 110.48854265327327 -25.939527306907589 -118.01627787145878 110.48854265327327 -0.77091305549533984 3.8797064441964841e-06 -1.4044583336890842e-05 -1.2849012174735876e-05 0.0000000000000000 4.4617214497146566e-07 -6.6663419131946148e-07 6.5344077774581258e-07 0.00059545322911446397 -1.0145608630876476e-10 -4.2260810609476495e-10 -3.4636597879013006e-09 0.0000000000000000 -25.913646985361510 -118.01095136745833 110.66456878241424 88.846747377876298 0.0000000000000000 0.0000000000000000 0.0000000000000000 0.0000000000000000 3.0095374295100465 3.0190962480805577 1.0095588175927859 1.0042123154874469 49.282995212970256 49.282739622396932 1.0047685218524622 
-36.283155531023453 -112.71076471356486 111.86736803037203 -36.283155531023468 -112.71076471356490 111.86736803037196 -17.718691206431867 -6.4666681884344732e-05 1.2057397061418606e-06 1.1706222432621718e-07 0.0000000000000000 6.7244205001391408e-07 -9.7217050981791730e-07 5.9213165880099043e-07 0.0012809253707159753 -3.2334865818178092e-10 -2.4984860571583194e-09 -4.8543595712881867e-09 0.0000000000000000 -36.236867317722961 -112.72601430119678 112.03758904139967 95.996160021407249 0.0000000000000000 0.0000000000000000 0.0000000000000000 0.0000000000000000 3.0056521935446439 3.0113083175090161 1.0056561121772949 1.0030080816460658 67.350483259716441 67.350339777071156 1.0028234542404457 
-33.420024912115139 -105.08631504852865 105.45406709794507 -33.420024912115167 -105.08631504852869 105.45406709794500 -9.4065162212582507 -2.9933965643339781e-05 1.9059078963923702e-05 4.4085187441600702e-05 0.0000000000000000 4.6495296192480670e-07 -4.4555407453613350e-07 1.1083079598339747e-06 0.0024601543510403587 6.5354012317034218e-10 -1.2216524653285579e-09 9.4799088947012996e-09 0.0000000000000000 -33.380789828628046 -105.09637623893835 105.63342596379557 85.433794965156210 0.0000000000000000 0.0000000000000000 0.0000000000000000 0.0000000000000000 3.0079574305991770 3.0159268520272584 1.0079694195316511 1.0035283292961670 42.709637576876190 42.709667948999119 1.0039769845675730 
-112.27573666958800 -160.69113820801667 124.51669535205355 -112.27573666958800 -160.69113820801664 124.51669535205359 -26.065630620022514 -5.9744162043320355e-07 2.6677621569999161e-06 -4.2380570141273644e-06 -24.399810839275521 1.1839482238346077e-08 3.3527665158072928e-09 5.2940479566832011e-07 0.00021615256969362525 -3.0200221664248432e-11 5.9402707978690466e-11 -4.5861107884819995e-11 0.00016468624532262210 -112.21942232800005 -160.66347960400000 124.66427103520003 147.55923210393107 0.0000000000000000 0.0000000000000000 0.0000000000000000 0.0000000000000000 3.0055674822018190 3.0111428570992786 1.0055753780747188 1.0027083032349509 77.385054437358775 77.385062439577624 1.0027838427902833 
-99.583110673136829 -158.12145272973120 116.42191919308782 -99.583110673136773 -158.12145272973117 116.42191919308786 -26.104444143122777 -7.5478857591965327e-06 -2.9783631767264112e-06 -9.0929350874960806e-06 0.0000000000000000 1.0615648218109676e-08 3.2442876510274669e-09 5.8445722367350683e-07 0.00029557634853508375 5.2001546000657254e-10 -6.2601212934726068e-10 -1.9335419289180785e-10 0.0000000000000000 -99.532617471171264 -158.09468895943013 116.58484116745363 117.70414803503969 0.0000000000000000 0.0000000000000000 0.0000000000000000 0.0000000000000000 3.0051196491998176 3.0102416642052439 1.0051220139496193 1.0025899022773992 75.533626383577271 75.533707862392944 1.0025576765562076 
-104.39526272187058 -148.87852494642485 120.73701935812650 -104.39526272187052 -148.87852494642490 120.73701935812645 -23.762020510188147 -6.5056185833875025e-06 -2.1425666388026983e-06 8.7334556000010912e-06 0.0000000000000000 1.1079645877848378e-08 2.8541423044425862e-09 5.5511030488952784e-07 0.00044389181082308876 -1.1617495795483872e-10 -2.2200264972102517e-10 8.7369314813588364e-10 0.0000000000000000 -104.34256255272837 -148.85497981259945 120.89176065121424 119.29379793442074 0.0000000000000000 0.0000000000000000 0.0000000000000000 0.0000000000000000 3.0051157250140084 3.0102357338077685 1.0051200099923816 1.0026559204383476 72.966066738781834 72.966057229092996 1.0025567086686349 
-100.58136071790722 -162.31127749793009 124.42005654029056 -100.58136071790719 -162.31127749793004 124.42005654029062 -24.585623453805798 -2.4437330339601371e-06 -4.5050342219799456e-06 1.0349503153097333e-07 0.0000000000000000 1.0711902313081945e-08 3.4211473376455359e-09 5.3006202899164023e-07 0.00019224818554076426 7.1909019795795761e-11 5.2779651043542319e-11 -5.6706482456685623e-11 0.0000000000000000 -100.53040969477119 -162.28305471776312 124.56781543385799 141.51484144144280 0.0000000000000000 0.0000000000000000 0.0000000000000000 0.0000000000000000 3.0050605247415469 3.0101262064043355 1.0050656830190834 1.0025591836148340 71.214993951747587 71.214975824446341 1.0025296161734436 
-78.441324650560574 -148.82096307723182 89.233762915055863 -78.441324650560560 -148.82096307723185 89.233762915055863 -33.822021856715558 -2.1347014509633848e-05 8.5514470931881756e-06 -8.5852734616145978e-06 -34.519889746064635 8.5771480577701009e-09 2.8517194300414772e-09 7.6936339954425392e-07 -0.0011341282323647859 -3.9058644226994748e-09 -8.8438480310038345e-10 -1.3284069978304802e-09 -0.0018701904440511915 -78.400527573600002 -148.79743798799998 89.448228916799977 108.06316173413846 0.0000000000000000 0.0000000000000000 0.0000000000000000 0.0000000000000000 3.0056905296966336 3.0113881611492244 1.0056976340222723 1.0027083032349511 97.579963100642019 97.577008928014052 1.0028448354047652 
-80.190962791350756 -162.56295473696224 87.555361759253472 -80.190962791350771 -162.56295473696221 87.555361759253472 -42.110287430383650 -5.1680130717292471e-06 -8.6825598364388233e-06 -4.1313698911436247e-06 -40.518736499528707 8.7458483406799292e-09 3.4317833574881718e-09 7.8077816717536663e-07 -0.0011377484102654157 -1.8279907731019014e-09 9.6807597251337720e-10 -7.2075599234182010e-10 -0.0011367135516971011 -80.149363288800018 -162.53464431600008 87.773009718400019 109.57810873427631 0.0000000000000000 0.0000000000000000 0.0000000000000000 0.0000000000000000 3.0057745826868039 3.0115564014064944 1.0057818214712033 1.0027083032349493 105.19279038046899 105.21750198160088 1.0028868197318970 
-84.338980494763177 -160.21192510578101 94.769223495969982 -84.338980494763248 -160.21192510578109 94.769223495969982 -35.018142239825167 -6.0597741502820108e-06 7.2113810095155830e-07 -2.2034420338852978e-05 0.0000000000000000 9.1458013627698787e-09 3.3325280382467959e-09 7.3171682252182180e-07 -0.00044296428511231186 3.0972821732553080e-10 8.5560240667333611e-10 -1.8066444392160057e-09 0.0000000000000000 -84.295478612813938 -160.18443337667750 94.973195224810283 106.11323630727971 0.0000000000000000 0.0000000000000000 0.0000000000000000 0.0000000000000000 3.0047846848848354 3.0095759614070361 1.0047912789772857 1.0023942073500092 86.147358169171198 86.133425101976613 1.0023926567459178 
-86.518512149711810 -151.41457737157134 92.426070943836720 -86.518512149711810 -151.41457737157134 92.426070943836734 -40.303247139694463 -1.6432122694486764e-05 5.1166526176380126e-07 -2.8860247056868109e-05 0.0000000000000000 9.3559605236770427e-09 2.9611905219550931e-09 7.4765256008468849e-07 -0.00076519958215424727 2.8046492628105006e-09 9.8221323046052493e-10 -4.2726450379683989e-09 0.0000000000000000 -86.474010682800568 -151.39014911596544 92.634484883397832 94.367740677547317 0.0000000000000000 0.0000000000000000 0.0000000000000000 0.0000000000000000 3.0046057927496492 3.0092167586827778 1.0046109677970312 1.0023413515905752 99.077513362217516 99.078656900053076 1.0023028311168849 
-26.035419014447541 -132.44871894472655 138.52360353668655 -26.035419014447541 -132.44871894472655 138.52360353668655 -11.404193615911016 6.7170690920333923e-06 -1.3940306882626262e-05 7.1696803449392167e-05 -13.493389562524053 3.5241332126817460e-09 2.1605900818455481e-09 4.3414405875852324e-07 -0.00058334240026882182 -4.0608825795653161e-10 1.2176226906270167e-09 -7.2970867132991645e-09 -0.00051199279261456628 -26.018656529999991 -132.43089511199997 138.64462455200004 49.421240865332216 0.0000000000000000 0.0000000000000000 0.0000000000000000 0.0000000000000000 3.0053149111629174 3.0106370195804217 1.0053221150952949 1.0029176944109062 46.121400877232375 47.050530223050039 1.0026575967530160 
-32.515181171611282 -133.97516870365797 137.47995055970756 -32.515181171611282 -133.97516870365794 137.47995055970753 -10.495634214028351 -8.3962901408929538e-06 6.6012168581061692e-07 8.9888046093490736e-06 3.2888678507765392 4.1489189982896191e-09 2.2250286196845437e-09 4.4124193021577435e-07 -0.00020087445205675282 1.7980718301391993e-09 1.4415294020364232e-09 -2.6978698307005998e-09 -0.0043160399590432821 -32.495446914399992 -133.95681332000001 137.60295016000006 48.530522504776933 0.0000000000000000 0.0000000000000000 0.0000000000000000 0.0000000000000000 3.0063031684485675 3.0126133352894073 1.0063101602693860 1.0031787672661625 53.009566760115057 52.966021288739945 1.0031499553052254 
-28.436067335162114 -136.45799707939037 140.19216684323357 -28.436067335162122 -136.45799707939040 140.19216684323354 -13.184313080908137 9.5401401403876419e-06 1.9209848101894555e-05 7.2213456542925707e-06 -16.965262851558400 3.7556043778336212e-09 2.3298393769799475e-09 4.2279618750473697e-07 0.00011335451144265424 -1.5548914717239194e-09 -1.2590915636501480e-09 -9.5182456745759899e-10 0.0011398717909747518 -28.418203856399998 -136.43877710800004 140.31002455199999 44.353383947079159 0.0000000000000000 0.0000000000000000 0.0000000000000000 0.0000000000000000 3.0053263419478728 3.0106586316448958 1.0053322914113072 1.0027775986274201 52.786497514012702 53.604670119651125 1.0026626500656304 
-26.785471967855688 -129.51854059030279 143.73719742085927 -26.785471967855688 -129.51854059030285 143.73719742085922 -21.092846183476436 3.1277928569382701e-06 9.1174423673207013e-06 9.0049650708211659e-07 0.0000000000000000 3.5964527952958573e-09 2.0369054914981533e-09 3.9868649082119839e-07 0.00029758453954441369 9.7129028322047083e-10 3.1363856702749985e-10 9.8488977834469574e-10 0.0000000000000000 -26.768365491316434 -129.50173712462359 143.84833436668455 49.139845408488213 0.0000000000000000 0.0000000000000000 0.0000000000000000 0.0000000000000000 3.0057808843222560 3.0115698928000096 1.0057890097103199 1.0028463806402750 80.049063332980325 75.822690090140000 1.0028902890381135 
-40.091971078145839 -65.470571233179086 153.86143790566018 -40.091971078145846 -65.470571233179072 153.86143790566024 -34.706138224145135 1.9182554376917003e-05 -9.0618244540852236e-07 -2.4651803818362066e-05 -26.093851014567630 4.8794771626003985e-09 -6.6667595055580609e-10 3.2983172060241372e-07 -0.00025576012876881880 -1.5309258343552999e-09 -6.0250944943485072e-10 3.1870276452226138e-09 -0.0021304206316025706 -40.068761925200000 -65.476070995999990 153.95338104800004 156.95717166164070 0.0000000000000000 0.0000000000000000 0.0000000000000000 0.0000000000000000 3.0065454380130467 3.0131009896064973 1.0065555545940066 1.0027921516744551 90.542806420449025 90.542824498371530 1.0032726570295885 
-52.455637329419126 -59.648249016919344 149.16296386202060 -52.455637329419126 -59.648249016919330 149.16296386202063 -37.224061201555166 1.7699889505831684e-05 1.6511497047401615e-05 -5.6584113571197523e-05 -28.767993620051566 6.0715923781706768e-09 -9.1245032016185047e-10 3.6178595780311790e-07 0.0016909099675292900 5.4395434091948126e-09 1.4920663112819433e-09 -6.5705493690774237e-09 0.0029361280533428372 -52.426757905599978 -59.655776269200025 149.26381449600007 118.05125250056595 0.0000000000000000 0.0000000000000000 0.0000000000000000 0.0000000000000000 3.0059830710407480 3.0119746307258670 1.0059915623507725 1.0027594933938440 97.363416035298158 97.363392009511458 1.0029912987107674 
-35.193880034505803 -66.024463284914390 144.89064088687314 -35.193880034505803 -66.024463284914404 144.89064088687314 -51.419953906484437 -3.0235212134392384e-06 7.1458395151603888e-06 -3.1015363228644022e-05 -56.443387237360646 4.4072006703810276e-09 -6.4330336196904980e-10 3.9084195030403279e-07 -0.00010475553005105431 -2.8605272599513136e-10 3.1851317026986868e-10 1.3277642245187726e-10 -0.00070409081333662449 -35.172917262399999 -66.029770167599992 144.99959110400002 155.12084301790807 0.0000000000000000 0.0000000000000000 0.0000000000000000 0.0000000000000000 3.0047380521144640 3.0094821156054867 1.0047440651054984 1.0024996203946530 134.60362340686717 134.60358428231694 1.0023690582167220 
-50.440783608832760 -66.585016505478833 142.08920935305895 -50.440783608832788 -66.585016505478805 142.08920935305892 -52.179514711016147 1.1039097407952322e-05 4.0333720156496856e-05 -8.1348517354392190e-05 0.0000000000000000 5.8773159186675805e-09 -6.1963301156708894e-10 4.0989443333971920e-07 0.00087302202077905848 3.5091162242122304e-09 8.3113136538214494e-09 -3.5765862380264841e-09 0.0000000000000000 -50.412828244765279 -66.590128188430739 142.20347059834828 136.07757377940416 0.0000000000000000 0.0000000000000000 0.0000000000000000 0.0000000000000000 3.0030131287606001 3.0060220994545848 1.0030089685824766 1.0019817332681551 117.38482378598003 117.38482081688564 1.0015033825401114 
-94.607930306131692 -158.74373161657482 77.389946829764270 -94.607930306131706 -158.74373161657485 77.389946829764284 -67.511908996051801 -1.6334355040785982e-05 5.5542029863345032e-06 -1.5345350093415459e-05 -68.189530080190025 1.0135942547090382e-08 3.2705665606314045e-09 8.4991297838454837e-07 -0.00017252425788916000 1.0755949894839333e-09 -1.8769084448997195e-09 2.6681426874555530e-10 -0.00077150875206057003 -94.559718839999974 -158.71675115199997 77.626866652000004 109.98746742214213 0.0000000000000000 0.0000000000000000 0.0000000000000000 0.0000000000000000 3.0053954386467407 3.0107976184325791 1.0054021822447792 1.0027083032349491 152.47855917278190 152.47847488373779 1.0026974550861973 
-89.728112942034926 -158.49329845300014 82.210573055949524 -89.728112942034912 -158.49329845300011 82.210573055949524 -52.459881261938122 -2.6673866456483984e-05 2.6776209677593473e-05 -1.3037135674268231e-05 -46.281883190358364 9.6654345742297476e-09 3.2600017199624358e-09 8.1712799032684924e-07 -0.00047777997525424982 4.8148488059435719e-10 -1.3819932128967393e-09 1.2725347345774082e-10 -0.00031848653522607075 -89.682139475999989 -158.46640519600001 82.438353807199988 112.88451412247700 0.0000000000000000 0.0000000000000000 0.0000000000000000 0.0000000000000000 3.0054270845562878 3.0108607023518794 1.0054336201355605 1.0027083032349511 120.46138138419154 120.46145894107870 1.0027131018447055 
-102.76181762815938 -154.96970489145582 86.389127082077081 -102.76181762815939 -154.96970489145585 86.389127082077096 -63.950072482861898 -3.9752523352686995e-06 1.3657276721862199e-05 -1.3359349858283894e-05 0.0000000000000000 1.0922144303565641e-08 3.1112466838956188e-09 7.8870971020883474e-07 -0.00025723367760555402 1.6141133159179488e-10 8.3389483840028052e-10 4.3726503656387915e-09 0.0000000000000000 -102.70986659571734 -154.94403864466588 86.608986019839278 111.02505284862640 0.0000000000000000 0.0000000000000000 0.0000000000000000 0.0000000000000000 3.0054134063419826 3.0108333552737276 1.0054199508684081 1.0025670744498434 150.17280704815940 150.17261212969299 1.0027063249473047 
-100.45795910504160 -167.20383978107026 83.444633960956565 -100.45795910504152 -167.20383978107023 83.444633960956565 -53.608832124389544 -1.4882448778147152e-05 1.2879525133810224e-05 -2.9499058662420482e-05 0.0000000000000000 1.0700004698244172e-08 3.6276959977654677e-09 8.0873516378199284e-07 -0.00013571951704458390 3.6569245964424394e-10 5.9169487008035112e-10 -1.4346842871051751e-09 0.0000000000000000 -100.40706467681501 -167.17391327890167 83.670075146830683 105.53983917324770 0.0000000000000000 0.0000000000000000 0.0000000000000000 0.0000000000000000 3.0054572825376864 3.0109216083747392 1.0054643284494913 1.0026534119354240 118.89586611230381 118.89636619836314 1.0027284318845799 
-114.68147991655671 -99.812310383980915 96.371329451699395 -114.68147991655673 -99.812310383980943 96.371329451699395 -39.210101907452675 -2.6352243490734985e-08 -2.3153212215710826e-06 6.1048351692210480e-06 -37.922072672798421 1.2071443098587988e-08 7.8294847688509250e-10 7.2082093210967823e-07 0.00021431562044682223 2.8145030189345549e-10 3.7760347992455432e-10 1.3620414837746681e-09 0.00026854120019332683 -114.62406224400000 -99.805851428000011 96.572263865600007 85.211636250682801 0.0000000000000000 0.0000000000000000 0.0000000000000000 0.0000000000000000 3.0055052875559127 3.0110169416954937 1.0055116559211297 1.0025888866827446 99.243326381554269 99.243330682356273 1.0027520170602353 
-111.14335712144297 -91.101067440090986 100.02726511864873 -111.14335712144295 -91.101067440090986 100.02726511864874 -39.665556379873337 3.5543145601888484e-06 3.7391489917258372e-06 1.1358789145646448e-05 -43.065223488645543 1.1730304668583491e-08 4.1523527671838423e-10 6.9595697327340389e-07 -0.00011653409437250628 6.0621359380407045e-10 4.0710768849014449e-10 3.3754672596456217e-09 -0.0014705511605325847 -111.08756211600000 -91.097641973600034 100.22126851279998 99.535403830130534 0.0000000000000000 0.0000000000000000 0.0000000000000000 0.0000000000000000 3.0056024010154725 3.0112113801795313 1.0056089814814706 1.0026810180237429 105.74411190234447 105.74410763585199 1.0028005493971526 
-112.96097666091657 -97.661514879039728 108.20831777594060 -112.96097666091654 -97.661514879039728 108.20831777594057 -35.475272616300678 2.9826555818237395e-06 1.2833177267740563e-05 -9.8125573159145992e-06 -41.913489031244588 1.1905563968711563e-08 6.9216365278235149e-10 6.4031778423956354e-07 0.00061532469344591700 2.7209482593008754e-10 1.5272685303699651e-09 -1.4231537446936338e-09 0.00050159311886341048 -112.90434805199999 -97.655804887999992 108.38681131359999 128.09762094244454 0.0000000000000000 0.0000000000000000 0.0000000000000000 0.0000000000000000 3.0054371879336461 3.0108817265253900 1.0054445417160096 1.0027319514299158 102.81348665981979 102.81347649284523 1.0027185668327459 
-107.20865675812408 -103.84906597026773 100.35678633081653 -107.20865675812409 -103.84906597026779 100.35678633081656 -38.602835214715242 -6.2747297012415047e-06 -5.7851017642384583e-06 4.7279608423500147e-06 0.0000000000000000 1.1350909403379241e-08 9.5335003780228057e-10 6.9371591099320895e-07 0.00061105336735141867 -1.6860632568720942e-09 1.1823820667584553e-09 -1.7060145500096693e-09 0.0000000000000000 -107.15466629968294 -103.84120130723400 100.55016500991876 102.24201981555134 0.0000000000000000 0.0000000000000000 0.0000000000000000 0.0000000000000000 3.0048026067758777 3.0096091499667312 1.0048065435851974 1.0024679522243267 93.758548730403916 93.758545077575477 1.0024003408235267 
-26.913252080850484 -115.38024755637159 103.18296085021379 -26.913252080850494 -115.38024755637160 103.18296085021380 -2.8391365042857384 1.2991895741096120e-05 -6.9043960686446997e-06 -9.5742469856118587e-06 0.0000000000000000 4.0805807518139075e-07 -7.3718074886346290e-07 8.9953958870557734e-07 0.0011794541471431290 5.5360466724334249e-10 -1.9817914208278917e-09 4.5304419074485920e-09 0.0000000000000000 -26.889884864405381 -115.37486796036181 103.37575244326078 96.382960025775517 0.0000000000000000 0.0000000000000000 0.0000000000000000 0.0000000000000000 3.0089511840151553 3.0179207090650197 1.0089695229562201 1.0041149683592960 49.306920093826172 49.306960153746125 1.0044747786263741 
-109.62343209974291 -103.62956158969452 152.10217149776926 -109.62343209974296 -103.62956158969452 152.10217149776923 -15.666633876351218 -2.9870514350627896e-06 -5.6650115412009605e-06 -7.0330898493913830e-06 -16.147768052528882 1.1583752099891820e-08 9.4409248474480734e-10 3.4179645691523314e-07 -1.7949815420949317e-05 8.0601935792274157e-11 4.9739843624315901e-10 -3.1322005619112774e-10 -0.00016422962145888520 -109.56833416800004 -103.62177336400003 152.19744990400002 70.302883591683823 0.0000000000000000 0.0000000000000000 0.0000000000000000 0.0000000000000000 3.0050345300336043 3.0100744007688842 1.0050398724733631 1.0026958005411861 56.899858983458877 56.748530465276311 1.0025167795497743 