# For a description of the Tecplot format see the Tecplot User's guide.
#
Variables=x,y,z,s_u,s_v,s_w,s_p,mono_f_vel_u,mono_f_vel_v,mono_f_vel_w,const,u_nu,v_nu,w_nu,p_nu,x_nu,y_nu,z_nu,const,u_ref,v_ref,w_ref,vol_ref,x_ref,y_ref,z_ref,const,I1,I2,I3,J,p1,p2,p3
Zone f=fepoint, n=356, e=1130, et=brick, c=black
-65.8925 -97.5399 91.5475 -65.892506105368241 -97.539879188051188 91.547548405467566 -92.932510950000164 -1.8014056047400449e-05 2.0896258140495370e-05 0.00012527577106301571 1.3378328382084866e-19 8.0646523833993733e-10 5.7126525732087423e-11 3.3958241685283491e-07 3.5399716648979232e-05 1.1329831609803867e-11 -1.4046098306567022e-11 -3.3293354534255097e-11 -3.3615627388520460e-20 -65.754724465942431 -97.517594547729473 92.373562431030237 2074.8615187338191 0.0000000000000000 0.0000000000000000 0.0000000000000000 0.0000000000000000 3.0214078940931719 3.0429223451440919 1.0215146052066268 1.0107141671501390 234.56817056239402 211.61892088850530 1.0107000440591134 
-75.902937677356149 -130.62778827177442 77.957156967574392 -75.902937677356164 -130.62778827177448 77.957156967574377 -67.308336297628728 -6.4624826563991849e-05 -2.8668595160329481e-05 2.6050296165627836e-05 -19.237619232501292 9.1212856365152639e-10 1.7324719436828673e-10 3.8123022538805168e-07 2.9744594341783215e-05 4.5795103343383781e-11 2.2895120673312379e-11 -2.6872450774846998e-11 -2.4176016819469418e-05 -75.747104543999981 -130.56019973999997 78.884476808000016 2128.8259272129790 0.0000000000000000 0.0000000000000000 0.0000000000000000 0.0000000000000000 3.0214253332914871 3.0429580729697188 1.0215328945068280 1.0107141671501390 193.86336904196563 174.52940479710577 1.0107090714242359 
-63.555842751269914 -121.85018842560692 70.255903176231826 -63.555842751269907 -121.85018842560692 70.255903176231826 -32.091729768534371 5.3954117432007734e-05 -8.3261079058154149e-06 1.1875946958354154e-05 29.194787220303787 7.8180972459818143e-10 1.4244483370617900e-10 4.0483074559283239e-07 1.4888672741384021e-05 -4.3219838172049545e-11 7.9076826714090357e-13 -6.9567217792463693e-12 -3.9693701958165512e-05 -63.422274742800013 -121.79461816400000 71.240629883439979 1237.7701333319521 0.0000000000000000 0.0000000000000000 0.0000000000000000 0.0000000000000000 3.0214964443935597 3.0430979687833064 1.0216016699666859 1.0107141671501392 109.56888260976800 71.485587279681340 1.0107431327298715 
-56.272752767570985 -132.14921885914742 75.697250475554910 -56.272752767570985 -132.14921885914740 75.697250475554924 -45.508668974842372 7.3004693149659070e-05 -9.1822677427155949e-06 -3.5845931292951935e-05 -65.008385781026632 7.0493656398329395e-10 1.7859408396603271e-10 3.8815572289685463e-07 1.9651309762414963e-05 -4.2059751820862781e-11 1.9078928709724221e-11 2.6495660234999099e-11 8.4997916668279802e-05 -56.152318124399997 -132.07954718800002 76.641416164000006 2090.5778096190215 0.0000000000000000 0.0000000000000000 0.0000000000000000 0.0000000000000000 3.0212637692187267 3.0426351756452914 1.0213715651934037 1.0107141671501390 178.44924394525336 166.85871613433670 1.0106292807786301 
-123.13887791904891 -110.42733344599993 88.357633032386545 -123.13887791904889 -110.42733344599995 88.357633032386531 -196.59500706186844 -6.8252952836691540e-06 9.6318076617870592e-06 -6.3908938921320154e-05 -227.66458723187480 1.4107084077286114e-09 1.0235262637436904e-10 3.4935792769807955e-07 7.4466450777736646e-05 -1.4052376976392823e-12 -9.8092174849445942e-12 1.7970302687527432e-11 8.2698678699766147e-05 -122.89786571200003 -110.38740333199999 89.207425400000020 2092.2379289329847 0.0000000000000000 0.0000000000000000 0.0000000000000000 0.0000000000000000 3.0214789548769976 3.0430642228047553 1.0215854186718847 1.0107141671501387 492.68942502990802 486.02884079082116 1.0107351017534738 
-123.01059646116234 -128.56888455338699 92.664251089799137 -123.01059646116234 -128.56888455338702 92.664251089799123 -165.64289938150441 -8.7983116822251879e-06 -4.3462828605985256e-06 -8.7703614941732894e-05 -227.30817261595337 1.4093548793281396e-09 1.6602250130226539e-10 3.3616028560778943e-07 6.5392889421965480e-05 -3.4527811206150132e-13 2.7885957685144767e-12 1.7000659131060744e-11 6.0586321162129923e-05 -122.76981557999994 -128.50411506799998 93.481940963999989 2295.0048277193882 0.0000000000000000 0.0000000000000000 0.0000000000000000 0.0000000000000000 3.0214826172648519 3.0430705842443966 1.0215881129607138 1.0107141671501390 429.50570543715764 423.57637517157212 1.0107364061755004 
-87.510710244163008 -119.60566763819980 107.30314998811043 -87.510710244162979 -119.60566763819985 107.30314998811039 -84.895201079985569 -5.2677291399542778e-06 6.7145005663242182e-05 -6.6445075832639462e-05 -3.6498930615278480e-20 1.0346542476946663e-09 1.3456888381391252e-10 2.9129932044291706e-07 3.4908703311556690e-05 2.1499845427675523e-12 -4.0867572815159918e-11 1.8026531873711582e-11 9.2096653113194983e-21 -87.333945182495114 -119.55317056945796 108.01171823852533 1853.2119812635015 0.0000000000000000 0.0000000000000000 0.0000000000000000 0.0000000000000000 3.0213383454800362 3.0427843678705675 1.0214461864691204 1.0107141671501390 256.27733098823416 281.00350897850143 1.0106662303361562 
-122.13601713198155 -119.00096045301017 106.32177380258710 -122.13601713198156 -119.00096045301017 106.32177380258712 -84.079563456758663 -6.1418749318201645e-06 3.8279568764624425e-05 -7.0126575027946902e-05 -63.865548246037910 1.4001231250782009e-09 1.3245091134983511e-10 2.9430675230202041e-07 3.3018942937619833e-05 -6.5999098530217916e-13 -2.4565203200327950e-11 1.7260170270437917e-11 2.2598404021662151e-05 -121.89681335200000 -118.94929134799999 107.03765745040002 1571.7251237143605 0.0000000000000000 0.0000000000000000 0.0000000000000000 0.0000000000000000 3.0214097190832692 3.0429242527118094 1.0215146758559366 1.0107141671501394 226.04453066111640 227.62772644603157 1.0107000694594799 
-44.274301966573397 -163.73724453849712 123.05874645018599 -44.274301966573383 -163.73724453849715 123.05874645018596 -29.714456423865030 2.6611098139839093e-05 -1.1331416642636215e-05 5.2323670077091999e-06 0.0000000000000000 5.7829038432877223e-10 2.8946800512130721e-10 2.4301623291478336e-07 1.8232395546139094e-05 -3.2601648176097011e-11 -5.6072389672805684e-12 5.7288065716480931e-12 0.0000000000000000 -44.175503749389662 -163.62432261291502 123.64986896362305 1288.7765825848380 0.0000000000000000 0.0000000000000000 0.0000000000000000 0.0000000000000000 3.0217117317876818 3.0435391508561689 1.0218276001174995 1.0110329096788748 135.83829837701208 235.18707496297560 1.0108550038515638 
-15.525183683109409 -143.95059854994622 135.56509065912599 -15.525183683109413 -143.95059854994628 135.56509065912593 -27.138531361724304 3.6969458065065402e-06 -1.7822015036921970e-05 1.8901256435892437e-07 2.8693224298508109 2.7484386294629459e-10 2.2001206412269878e-10 2.0469047656845871e-07 1.5616201222861447e-05 -7.3958324517976818e-13 1.1489062034212820e-11 2.5050953754904279e-11 -3.5546264140227781e-06 -15.478227839600008 -143.86476845600004 136.06298808800005 1207.7015194609139 0.0000000000000000 0.0000000000000000 0.0000000000000000 0.0000000000000000 3.0212208006005650 3.0425446645260199 1.0213240023713337 1.0107751488605718 152.85800407881828 141.87282406257555 1.0106057774556234 
-44.274301966573397 -163.73724453849712 138.81434291226154 -44.274301966573383 -163.73724453849715 138.81434291226162 -47.199777812979427 1.2546651624586712e-05 -1.7180657136494811e-05 4.3723690374729509e-08 0.0000000000000000 5.7829038432877233e-10 2.8946800512130721e-10 1.9473314560869428e-07 2.0969029503087306e-05 -9.3140444651086380e-12 1.9374891138501489e-11 -4.5666779106610294e-12 0.0000000000000000 -44.175503749389669 -163.62432261291511 139.28801968872074 2260.0113226803110 0.0000000000000000 0.0000000000000000 0.0000000000000000 0.0000000000000000 3.0212996674036678 3.0427042496514543 1.0214047283517214 1.0108113941102390 199.66392196444511 192.14389257997217 1.0106457950959609 
-5.9114931170987486 -161.56868203462972 129.88515900808810 -5.9114931170987477 -161.56868203462972 129.88515900808810 -107.55647296475198 3.5006779352323464e-05 -3.6405043412992583e-05 1.8006904870646447e-05 -132.01810447732643 1.7337176486109662e-10 2.8184438116696242e-10 2.2209665773154086e-07 4.5094338111560734e-05 -2.1486196175243928e-11 2.7491257423794286e-11 -5.2379713612794935e-12 4.4380196504071667e-05 -5.8818733370400009 -161.45872929999999 130.42539591680000 1840.5999298976626 0.0000000000000000 0.0000000000000000 0.0000000000000000 0.0000000000000000 3.0213693769447976 3.0428436049378083 1.0214743756932774 1.0107141671501381 315.20112724620378 300.13213859959808 1.0106801459589081 
-9.8173310646172744 -107.14440469926882 182.84362444745753 -9.8173310646172762 -107.14440469926879 182.84362444745756 -60.462517204817928 -5.8522353704779212e-06 9.8396130925008788e-06 9.1080127472188450e-06 -66.071671055591437 2.1459789154021358e-10 9.0833396360068251e-11 5.9805232766052541e-08 2.3861305485166271e-05 2.4037638001767788e-12 -6.9786550035391226e-12 -2.0156164525732000e-12 2.8697147890112069e-05 -9.7806680107999995 -107.10896956400003 182.98909712000000 1021.2952016557671 0.0000000000000000 0.0000000000000000 0.0000000000000000 0.0000000000000000 3.0214443162166824 3.0429945171651052 1.0215503505958194 1.0107141671501390 224.81863444094051 223.57343123467015 1.0107177408551193 
-17.616493761881443 -108.67476497314870 193.32658644484451 -17.616493761881440 -108.67476497314871 193.32658644484448 -68.368163425209261 -1.3514454092818743e-05 1.8917600178608220e-05 -2.3830867836723970e-07 -78.593317291418558 2.9691636302398017e-10 9.6196800525305548e-11 2.7680151060138769e-08 2.4253337514259887e-05 1.5793220476378445e-12 -9.2807148447152706e-12 3.7256288283917393e-12 2.6689661586371070e-05 -17.565766725200003 -108.63723447200002 193.39391677600000 1230.2822850381203 0.0000000000000000 0.0000000000000000 0.0000000000000000 0.0000000000000000 3.0214407906324170 3.0429873357914330 1.0215466943787290 1.0107141671501378 243.87360522577333 242.77387400015127 1.0107159295707606 
-44.274301966573397 -119.60566763819980 170.32553583641268 -44.274301966573468 -119.60566763819968 170.32553583641297 -77.157545915819938 -6.5042396516530686e-06 1.5686560079702301e-05 1.9347952659345802e-05 0.0000000000000000 5.7829038432877233e-10 1.3456888381391252e-10 9.8166970108337610e-08 2.8066541121302970e-05 4.4160311813455545e-12 -1.2663887162210171e-11 -4.7210913236614012e-12 0.0000000000000000 -44.175503749389591 -119.55317056945772 170.56432113891603 1872.3464537223574 0.0000000000000000 0.0000000000000000 0.0000000000000000 0.0000000000000000 3.0214228331114437 3.0429518221821192 1.0215291407160887 1.0107141671501396 258.92621758637102 262.92019678086541 1.0107072595824547 
-9.3676921225663019 -124.45624693511617 188.76328209847156 -9.3676921225663019 -124.45624693511617 188.76328209847156 -61.681448993582300 1.1715395374405915e-06 -2.4459282640253078e-05 -1.1607271325465661e-06 -59.659949624531357 2.0985217036306736e-10 1.5158940769310902e-10 4.1664411698505432e-08 2.2229698505859568e-05 -2.4497907489586292e-14 1.1452143026524113e-11 -1.7844420138657705e-13 1.9486419494977024e-05 -9.3318398883999993 -124.39710846400000 188.86462832000004 1016.3527334425750 0.0000000000000000 0.0000000000000000 0.0000000000000000 0.0000000000000000 3.0214401765927730 3.0429860582967185 1.0215460307252322 1.0107141671501385 232.95807597179285 232.24603807794637 1.0107155997024997 
-44.274301966573397 -163.73724453849712 107.30314998811043 -44.274301966573383 -163.73724453849715 107.30314998811039 -68.740070866156643 7.0416208804911724e-06 -9.1817388291783402e-05 -3.4315698794898424e-05 1.0556605053399951e-18 5.7829038432877244e-10 2.8946800512130721e-10 2.9129932044291706e-07 3.0218960000081556e-05 -4.7660073171873937e-12 6.8808255145186418e-11 1.2400120478155382e-11 -2.6537084123189718e-19 -44.175503749389662 -163.62432261291499 108.01171823852535 1450.3671205666894 0.0000000000000000 0.0000000000000000 0.0000000000000000 0.0000000000000000 3.0222532805956304 3.0446234272086041 1.0223703182315189 1.0110771634250442 162.17599533417558 226.99520148128980 1.0111229080944601 
-61.283124457213766 -161.06410774864068 85.128922886227699 -61.283124457213738 -161.06410774864068 85.128922886227684 -191.63774282765553 -5.7401022266031780e-05 -0.00015619809738143326 -3.3330692628482496e-05 -96.832400947841265 7.5781854055878572e-10 2.8008564911807809e-10 3.5925231878231040e-07 7.2536939160478090e-05 2.9341135985593353e-11 9.7842243753395679e-11 3.4485290168623208e-11 8.4956293455754831e-05 -61.153654769600031 -160.95484587600001 86.002782780800032 1645.6757988676138 0.0000000000000000 0.0000000000000000 0.0000000000000000 0.0000000000000000 3.0190921679341400 3.0382766877394278 1.0191846499078063 1.0101681787814061 453.10441497912342 449.70904898417126 1.0095468546854982 
-44.331600048598759 -168.12053401978119 82.382054080297422 -44.331600048598752 -168.12053401978119 82.382054080297408 -311.05483751130049 4.8995114443817407e-05 -0.00026161240840825073 -4.4458844773966458e-05 -150.74187674187121 5.7889864776838894e-10 3.0484265112207254e-10 3.6767010658245169e-07 0.00010966656530051188 -1.9457142242753746e-11 1.4516567397740587e-10 4.3698703723999850e-11 0.00011666793286896538 -44.232698507600013 -168.00161050399998 83.276389748800028 1737.4139093181343 0.0000000000000000 0.0000000000000000 0.0000000000000000 0.0000000000000000 3.0216076318694838 3.0433212604435647 1.0217137780968419 1.0107141671501390 642.93302287476956 632.57011117649404 1.0107987129633655 
-44.274301966573397 -185.80303298864575 107.30314998811043 -44.274301966573383 -185.80303298864581 107.30314998811041 -328.26153849649342 1.6302989980312151e-05 -0.00010736171463060178 -0.00012823098017560137 -1.2345876160693623e-20 5.7829038432877233e-10 3.6689626337071962e-10 2.9129932044291706e-07 0.00011720612541391946 3.4566336494008384e-13 7.5753163706216247e-11 9.8620942053783357e-12 3.1565973732252710e-21 -44.175503749389676 -185.65989863464350 108.01171823852533 1616.4576808433910 0.0000000000000000 0.0000000000000000 0.0000000000000000 0.0000000000000000 3.0207601816631207 3.0416194957419131 1.0208594464575220 1.0105785509594669 716.53636337406260 713.32516439918334 1.0103758188272771 
-87.510710244163008 -141.67145608834846 138.81434291226154 -87.510710244162979 -141.67145608834838 138.81434291226157 -71.365883330466545 4.8935867289373785e-07 -1.4375438264270382e-05 5.0131836854157311e-06 0.0000000000000000 1.0346542476946663e-09 2.1201135291804005e-10 1.9473314560869426e-07 3.1357890582823184e-05 4.4702484776770844e-13 1.0168850012531656e-11 -4.8151943216901627e-13 0.0000000000000000 -87.333945182495100 -141.58874659118649 139.28801968872074 1877.7986991733408 0.0000000000000000 0.0000000000000000 0.0000000000000000 0.0000000000000000 3.0215128520879246 3.0431309807154592 1.0216182630126367 1.0107475608755274 254.56591238092074 258.28575768854267 1.0107514489031670 
-65.892506105368213 -163.73724453849712 138.81434291226154 -65.892506105368255 -163.73724453849715 138.81434291226165 -58.862762840255670 -2.1041325841119776e-05 1.0346119469907543e-05 1.5789256965342048e-05 4.6337778916200216e-20 8.0646523833993754e-10 2.8946800512130721e-10 1.9473314560869426e-07 2.8737088564976793e-05 1.8796476697772475e-11 -6.6829193839218455e-13 -3.4603950606199839e-13 -1.1637848680943324e-20 -65.754724465942374 -163.62432261291517 139.28801968872077 2018.1238718776010 0.0000000000000000 0.0000000000000000 0.0000000000000000 0.0000000000000000 3.0210773389344441 3.0422572905184389 1.0211800922453849 1.0108168235494308 218.77026783672386 222.12693714653125 1.0105347217087719 
-87.510710244163008 -163.73724453849712 123.05874645018599 -87.510710244162979 -163.73724453849715 123.05874645018595 -93.115965911757641 -2.9973944719125803e-05 -1.7188990139720602e-05 8.1035335259182489e-06 0.0000000000000000 1.0346542476946663e-09 2.8946800512130721e-10 2.4301623291478331e-07 5.0358176451360801e-05 -6.1871570386812117e-13 6.0642527892782147e-12 2.0395776791878502e-11 0.0000000000000000 -87.333945182495114 -163.62432261291505 123.64986896362312 1549.0027140339625 0.0000000000000000 0.0000000000000000 0.0000000000000000 0.0000000000000000 3.0220409839884455 3.0441901147026686 1.0221492853813290 1.0108759930685620 268.02981120892014 319.86985765273681 1.0110137346140957 
-87.510710244163008 -141.67145608834846 123.05874645018599 -87.510710244162979 -141.67145608834838 123.05874645018596 -50.917532131231368 -2.7710220709841998e-05 -1.3836082618597098e-05 3.9258050105337335e-05 0.0000000000000000 1.0346542476946663e-09 2.1201135291804007e-10 2.4301623291478336e-07 2.5891723748804807e-05 1.6580507700860021e-11 1.9719710068932254e-11 -1.1147201020192086e-11 0.0000000000000000 -87.333945182495086 -141.58874659118649 123.64986896362313 1389.1126189879024 0.0000000000000000 0.0000000000000000 0.0000000000000000 0.0000000000000000 3.0212380056421182 3.0425797789377351 1.0213418925050308 1.0108301839823415 187.57675138870039 242.65104942520816 1.0106148100228092 
-45.298278649877432 -110.37356733355848 47.694215994613280 -45.298278649877425 -110.37356733355848 47.694215994613280 -314.53632198948412 5.3961257941184085e-05 2.0346358518640090e-05 -6.5571628353985949e-05 -334.42559790600114 5.8909957120767409e-10 1.0216916201954973e-10 4.7397113123182066e-07 0.00012251724642859020 -1.3984656155432340e-11 7.6957816519452003e-12 3.4717944119223254e-11 0.00011953048869736087 -45.197633928000002 -110.33371083599998 48.847122559999995 1069.0094105005942 0.0000000000000000 0.0000000000000000 0.0000000000000000 0.0000000000000000 3.0214394511796532 3.0429847239085648 1.0215454222892608 1.0107141671501396 697.03295344703406 696.93846251567641 1.0107153016297585 
-57.245822419228212 -98.855343302057989 45.053444635561966 -57.245822419228247 -98.855343302057946 45.053444635561974 -329.92935659582633 6.5325838463617296e-06 2.5989840743505151e-05 -6.1413752596510451e-05 -298.60532951999909 7.1520726493967689e-10 6.1742944090781306e-11 4.8206378155946084e-07 0.00012990599297902633 4.8970085034581230e-12 -4.4941885397823121e-13 2.3230259943634419e-11 0.00014390558935396889 -57.123633070400032 -98.831257531200038 46.226036100800002 1475.5774262919704 0.0000000000000000 0.0000000000000000 0.0000000000000000 0.0000000000000000 3.0214372270936121 3.0429802605908240 1.0215431830687569 1.0107141671501392 698.56776909275152 698.59961052600966 1.0107141944398323 
-60.267278971250498 -105.62034220429376 56.171185885755314 -60.267278971250477 -105.62034220429381 56.171185885755328 -210.42765855126666 2.9253716834602892e-05 0.00013933357646860677 -0.00014818372009846591 59.575048347950080 7.4709853234433677e-10 8.5482093625799394e-11 4.4799341858414721e-07 8.3121573102316505e-05 9.8296599969573186e-12 -4.6650124063201500e-11 9.6739545123782004e-11 0.00019283888092557944 -60.139641125599979 -105.58699381199996 57.260903223199996 1724.6135661994952 0.0000000000000000 0.0000000000000000 0.0000000000000000 0.0000000000000000 3.0214323793250206 3.0429705997603951 1.0215383703193903 1.0107141671501394 482.17090789036524 482.03519188326464 1.0107118149687648 
-19.460072361930802 -88.125450794725268 56.612650059965183 -19.460072361930802 -88.125450794725253 56.612650059965183 -261.22413911020834 -1.0434953516810152e-05 -2.1704009545747887e-05 -0.00013315595334484207 -276.77032161409136 3.1637699057784907e-10 2.4079141458521750e-11 4.4664055010024128e-07 0.00010228268365565241 -5.4788015169102129e-12 -3.0926069223628169e-12 2.0640243514101133e-11 0.00011241759847833512 -19.406020858399991 -88.116056368799974 57.699076624800000 1439.6451283969650 0.0000000000000000 0.0000000000000000 0.0000000000000000 0.0000000000000000 3.0214326337808659 3.0429710453615111 1.0215385611697356 1.0107141671501396 608.21337041912818 608.58519454518148 1.0107119092136114 
-58.901712261690626 -178.72176384405466 77.826890941102121 -58.901712261690612 -178.72176384405472 77.826890941102121 -506.05252951160230 1.5780089898840496e-05 -6.7368391850259457e-05 -7.5356545885354634e-05 -565.75211050766836 7.3268230024736702e-10 3.4203351262362963e-10 3.8162942228581187e-07 0.00016964811383084720 -1.2465098573815311e-11 1.6093973695686847e-11 5.6514672962596570e-11 0.00027477839966013722 -58.776536899199989 -178.58832514800000 78.755181813599989 1584.4809985467919 0.0000000000000000 0.0000000000000000 0.0000000000000000 0.0000000000000000 3.0220548690206090 3.0442221758552841 1.0221674723627849 1.0107141671501392 1055.0546899430924 1057.9736554987978 1.0110232508124919 
-74.616890737275867 -185.08496445216068 71.248439154015159 -74.616890737275867 -185.08496445216068 71.248439154015159 -464.79329025875467 0.00011313446137408460 -9.0991979300994650e-05 -4.7169540337507421e-07 -485.79777805531745 8.9855844639941128e-10 3.6437722283899632e-10 4.0178912219523960e-07 0.00015635119479728599 -7.0765729810193025e-11 3.8129203607813439e-11 -2.7120686146030124e-12 0.00014709005773791615 -74.463376691600018 -184.94281327599995 72.225767276240006 1182.3928641350060 0.0000000000000000 0.0000000000000000 0.0000000000000000 0.0000000000000000 3.0215174365985003 3.0431394170819175 1.0216221248165176 1.0107141671501394 954.43591987114098 953.94176535673557 1.0107532100324976 
-69.881748619194894 -211.76714972483256 85.722835024026153 -69.881748619194909 -211.76714972483254 85.722835024026153 -513.96850846288112 2.2628884063609256e-05 1.2262355081236953e-05 -6.6617483072070697e-05 -532.32977147962708 8.4857653889769412e-10 4.5803380532838394e-10 3.5743227733142646e-07 0.00016858410063075809 -1.7255595119101594e-11 2.2349499891098654e-12 1.1023069584030985e-11 0.00018013856305894242 -69.736773305200003 -211.58846536000007 86.592267764799999 1391.6778601551057 0.0000000000000000 0.0000000000000000 0.0000000000000000 0.0000000000000000 3.0213970122099210 3.0429016191815150 1.0215047630044338 1.0107141671501392 1085.6189976477801 1085.8174246020824 1.0106952521391583 
-86.989669581958367 -207.44668540270146 89.466602367233136 -86.989669581958395 -207.44668540270143 89.466602367233151 -404.20113470278278 0.00011458726498579544 -5.6097957416893590e-05 -7.4835911705363017e-05 -464.92643072335426 1.0291573947218689e-09 4.4286127542925158e-10 3.4595948927851339e-07 0.00013704486211718627 -6.2789628758935914e-11 3.6901727356492935e-11 -7.0558119345842791e-13 0.00015823062210919904 -86.813844096400004 -207.27391660800001 90.308128229600001 1955.0875990986240 0.0000000000000000 0.0000000000000000 0.0000000000000000 0.0000000000000000 3.0218961509538032 3.0439031896969984 1.0220072006225929 1.0107141671501387 877.28564626099012 879.58629683963534 1.0109439396102256 
-74.526964790666938 -212.76539467960217 99.893280635525528 -74.526964790666938 -212.76539467960214 99.893280635525528 -414.86613258905254 1.0849941027552640e-05 4.6738036652103582e-06 -2.5210849587375716e-05 -459.36348491389538 8.9761103758134730e-10 4.6153494914769055e-10 3.1400688760285783e-07 0.00013801882938098466 -4.4510845252379443e-12 -2.3661958779982839e-12 3.7095576860018205e-12 0.00014497465960652798 -74.373612905599998 -212.58534351999998 100.65708370800000 988.41240310934302 0.0000000000000000 0.0000000000000000 0.0000000000000000 0.0000000000000000 3.0216631892206292 3.0434374653479930 1.0217744413497198 1.0107141671501383 945.35914637971803 945.98608311248813 1.0108288129406344 
-65.892506105368213 -185.80303298864575 107.30314998811043 -65.892506105368255 -185.80303298864581 107.30314998811043 -274.19995856699126 5.0418011140502994e-05 -0.00012201769866667612 -0.00010884385907572100 -2.5040421141889783e-19 8.0646523833993754e-10 3.6689626337071967e-10 2.9129932044291706e-07 0.00010056936582058615 -3.6667818740350121e-11 7.3518148315898013e-11 1.4438495076854237e-11 6.2969958278840740e-20 -65.754724465942374 -185.65989863464350 108.01171823852535 1808.0980320372519 0.0000000000000000 0.0000000000000000 0.0000000000000000 0.0000000000000000 3.0203908685780330 3.0408677509227426 1.0204769758262124 1.0104571661369766 585.59760398324954 578.40008570487782 1.0101860581147621 
-83.631126562995647 -208.53488519944045 108.32393356810785 -83.631126562995647 -208.53488519944042 108.32393356810783 -292.06753461327008 0.00011662090510910227 -7.8843703811687808e-05 -0.00011484841057256628 -270.72794373767505 9.9369617742595097e-10 4.4668821419513444e-10 2.8817112140977486e-07 0.00010357508630835679 -6.7763916787389185e-11 3.5914386336476278e-11 2.6313846154818585e-11 9.5389687209581074e-05 -83.461357431600007 -208.36062644399999 109.02489266960001 1287.0831768928649 0.0000000000000000 0.0000000000000000 0.0000000000000000 0.0000000000000000 3.0218770169466134 3.0438661893107524 1.0219893383400420 1.0107141671501381 627.42732543365230 637.57893519148013 1.0109349897093791 
-41.652911920409665 -130.11315633887762 64.728726881436046 -41.652911920409672 -130.11315633887762 64.728726881436046 -173.14846941711673 5.0922244197780383e-05 -6.5952387185832898e-06 -5.0467201729768642e-05 -208.28207127413449 5.5062139223127637e-10 1.7144774488997427e-10 4.2176880898914249e-07 6.8198492065700062e-05 -2.2637796803436780e-11 1.6174058783922673e-11 3.1435987319900606e-11 0.00010520421770050333 -41.558840772800004 -130.04627243999997 65.754654395919971 2180.9238908936368 0.0000000000000000 0.0000000000000000 0.0000000000000000 0.0000000000000000 3.0214671399893409 3.0430401960411730 1.0215732052731921 1.0107141671501390 459.74515774361709 462.51577848949427 1.0107290336261412 
-22.848259172202699 -134.51802969767377 54.806100750497507 -22.848259172202695 -134.51802969767377 54.806100750497521 -283.60867788651507 2.2446616468745461e-05 8.3463416702440783e-06 -1.5736456434386140e-05 -287.74119375558161 3.5213952934154408e-10 1.8691692638128643e-10 4.5217673272368586e-07 0.00010944514532357715 -6.4807544057710097e-12 5.9235892011931854e-13 3.4816661858262504e-12 0.00010223700289002655 -22.788097858800000 -134.44511465599999 55.905993737599999 935.86986824075086 0.0000000000000000 0.0000000000000000 0.0000000000000000 0.0000000000000000 3.0214178028870333 3.0429412541979564 1.0215236006994048 1.0107141671501390 623.07906079511861 622.53867886459727 1.0107045168301967 
-11.064681760186483 -103.63306397136158 61.055332320998218 -11.064681760186486 -103.63306397136154 61.055332320998232 -258.06584351910436 -3.6214943496725189e-06 -4.1281791279172963e-05 -0.00010087128892401703 -227.01909114264694 2.2776400210311460e-10 7.8502232492283497e-11 4.3302593866201278e-07 9.9975414060311324e-05 -9.4894165601371406e-12 9.0575264208613699e-12 1.4170817742395615e-11 9.6587311562311936e-05 -11.025769398400001 -103.60243655599999 62.108642139439993 1284.9349949311236 0.0000000000000000 0.0000000000000000 0.0000000000000000 0.0000000000000000 3.0214284898027222 3.0429627768314949 1.0215344368095134 1.0107141671501394 605.75980121037594 605.67364818254589 1.0107098719415606 
-29.065627691767951 -140.84588754655249 69.077738278516264 -29.065627691767954 -140.84588754655249 69.077738278516264 -194.86301198517907 1.9200470979831357e-05 2.9126189646797702e-05 -6.9697705430106819e-05 -202.20664440120339 4.1776207840293910e-10 2.0910806419749406e-10 4.0844123971872648e-07 7.4852779291272769e-05 -4.3933552004511651e-12 2.8547174734927048e-12 3.4915332890900178e-11 0.00012508246937881220 -28.994254794799993 -140.76430841599998 70.071247290159988 2176.9829965296321 0.0000000000000000 0.0000000000000000 0.0000000000000000 0.0000000000000000 3.0214896544880920 3.0430856658505934 1.0215961617854263 1.0107141671501392 488.15918655171129 487.44603239359265 1.0107403721193042 
-103.61219303117237 -194.20856615129495 93.226920589995018 -103.61219303117240 -194.20856615129495 93.226920589995004 -258.49738538612468 6.7130906891881224e-06 -2.4796925055097482e-05 -9.7937879289569535e-05 -310.97707461706898 1.2045948370731365e-09 3.9641331883721875e-10 3.3443597091675770e-07 9.4937399098854878e-05 -6.9450578500629322e-12 8.6485485435037285e-12 2.2766266832423941e-11 8.4319495915036036e-05 -103.40639267600000 -194.05392295999994 94.040416199999996 2662.2783756828549 0.0000000000000000 0.0000000000000000 0.0000000000000000 0.0000000000000000 3.0215781587815935 3.0432658683002738 1.0216878703258041 1.0107141671501385 574.83707354925798 572.50281729034225 1.0107858805924297 
-82.676548596007208 -162.41249041118030 76.866443266300081 -82.676548596007237 -162.41249041118036 76.866443266300109 -291.97048370386779 -2.2375609088858721e-05 -4.5804555553009836e-05 -4.5119325290559462e-05 -277.34474084795778 9.8362137532226335e-10 2.8481944580605050e-10 3.8457272077963012e-07 0.00010802510853328449 1.1620986199052448e-11 2.2660270469331242e-11 4.0843852198836970e-11 0.00014795496237227817 -82.508500824799995 -162.30138233600007 77.801893530400037 2229.3857910936085 0.0000000000000000 0.0000000000000000 0.0000000000000000 0.0000000000000000 3.0219056499509076 3.0439221251019153 1.0220166363025600 1.0107141671501396 651.87875282244249 651.02365100329143 1.0109486168468071 
-28.060655888391526 -125.12211475073703 126.99764556570489 -28.060655888391548 -125.12211475073708 126.99764556570483 -14.929671625125415 3.6341810560899733e-06 -5.5813938378762294e-06 1.0294633769985265e-05 -4.9221854057482514e-20 4.0715477864217142e-10 1.5392601082631074e-10 2.3094545054114235e-07 7.3145033381551621e-06 -5.5255394999981063e-13 3.5148709465692083e-12 -5.4113846759770984e-12 1.2331357812537192e-20 -27.991095225219734 -125.06206457489009 127.55940664489751 1124.7619503421174 0.0000000000000000 0.0000000000000000 0.0000000000000000 0.0000000000000000 3.0210566587982624 3.0422116737520737 1.0211551472693008 1.0107691522715754 121.58256497001639 124.02900717157216 1.0105223096291553 