# For a description of the Tecplot format see the Tecplot User's guide.
#
Variables=x,y,z,s_u,s_v,s_w,s_p,mono_f_vel_u,mono_f_vel_v,mono_f_vel_w,const,u_nu,v_nu,w_nu,p_nu,x_nu,y_nu,z_nu,const,u_ref,v_ref,w_ref,vol_ref,x_ref,y_ref,z_ref,const,I1,I2,I3,J,p1,p2,p3
Zone f=fepoint, n=1339, e=6475, et=brick, c=black
-59.7619 -70.3443 174.566 -59.761935780844844 -70.344298846224106 174.56587034366206 109.36593204854718 1.7855414285253574e-06 3.3636014863596264e-06 -4.5893068220721967e-06 106.58417631853408 -8.4906110475735375e-09 3.3278679811843409e-10 -4.0816193624948482e-06 -0.0028631127282151923 -6.4209595773105145e-12 -1.1458132844495223e-11 1.7880794933346863e-11 -0.0028631129315833058 -58.668039002000000 -70.473359259200009 176.35421013599998 215.13583165143561 0.0000000000000000 0.0000000000000000 0.0000000000000000 0.0000000000000000 3.1974257690444827 3.4034787084747573 1.2061597909485082 1.0986533938938530 544.53461211441788 544.53461022592353 1.0982538090714919 
-66.156556823756844 -76.356686414407989 182.76365156652776 -66.156556823756858 -76.356686414407960 182.76365156652770 117.33671053618551 -1.4052979760894260e-05 7.2225163688625692e-06 -1.0999449156347240e-05 116.00729092855994 -9.2631946002619275e-09 1.4955969795948934e-10 -2.8777207958796676e-06 -0.0028923171851744254 -5.5698118584045875e-11 -3.3720539185739848e-11 5.1207191917212581e-12 -0.0028791795492932458 -64.963123215600007 -76.414687385200040 184.02450960799996 253.42820447565578 0.0000000000000000 0.0000000000000000 0.0000000000000000 0.0000000000000000 3.1968409148491541 3.4022272932735520 1.2054911930253953 1.0986533938938527 526.05810754308379 526.05819106769945 1.0979495806101534 
-70.931349260748149 -71.468371052941990 175.50901887208184 -70.931349260748135 -71.468371052941976 175.50901887208190 108.98920170207180 7.5177936010532678e-07 2.8784219844263599e-06 -4.7552711191671950e-06 107.86400469066173 -9.8400842474255496e-09 2.9852420535547713e-10 -3.9431117500043919e-06 -0.0028792754085949800 -1.4674300482829453e-11 -1.3038128999189074e-11 2.6997856566851950e-12 -0.0028792038594945796 -69.663592608799988 -71.584146237200002 177.23667228800005 218.29881668600640 0.0000000000000000 0.0000000000000000 0.0000000000000000 0.0000000000000000 3.1966530622392919 3.4018356377024692 1.2052871188339869 1.0986533938938521 540.78851751940749 540.78849820832352 1.0978569350641367 
-58.235136340722029 -87.804068117058463 169.56042639293898 -58.235136340722015 -87.804068117058392 169.56042639293898 111.03878599242046 2.2712041734254195e-06 1.7393680352289367e-06 -4.5030917747149891e-06 0.0000000000000000 -8.3061459377198332e-09 -1.9929624617276434e-10 -4.8167020203493402e-06 -0.0028550985488260293 -2.7486325979106309e-11 2.2208044015353564e-12 3.6138256842741430e-11 0.0000000000000000 -57.165005282198301 -87.726774323660578 171.67083873969227 259.76550921814646 0.0000000000000000 0.0000000000000000 0.0000000000000000 0.0000000000000000 3.2016229826490097 3.4123734158439878 1.2108688424711793 1.1000995908630942 555.75056000390907 555.75056609324213 1.1003935744293623 
-90.470238099785092 -83.403203055037750 111.25059357801472 -90.470238099785092 -83.403203055037721 111.25059357801469 134.32641659136178 1.6741843344903983e-05 -5.0143869772732548e-06 -5.3563925125509518e-06 0.0000000000000000 -1.2200722376842776e-08 -6.5181193775742940e-11 -1.3379887915832002e-05 -0.0031318766012125186 1.9173352610228099e-10 6.1970178768906741e-13 -1.1609630701985763e-10 0.0000000000000000 -88.898344731952406 -83.377922378373768 117.11292023788836 283.91631954144174 0.0000000000000000 0.0000000000000000 0.0000000000000000 0.0000000000000000 3.2058416535752867 3.4217733357361628 1.2160721222988640 1.1019933220773805 517.21749557097485 517.21749558887871 1.1027523848871530 
-99.305107183280072 -66.729922486637079 101.74627453215513 -99.305107183280057 -66.729922486637079 101.74627453215511 127.51510160040699 8.8507265575709158e-06 1.5650534468331918e-05 -3.9180041905299307e-05 121.68307892905885 -1.3268138976396672e-08 4.4292280954039138e-10 -1.4775660238441901e-05 -0.0034973481143405552 2.3162625835018052e-11 9.5826551182121001e-11 -5.6701810441457482e-10 -0.0034810926487155096 -97.595692787999965 -66.901700632800015 108.22015140479995 322.25788568967050 0.0000000000000000 0.0000000000000000 0.0000000000000000 0.0000000000000000 3.1953711493264296 3.3989950347981734 1.2037222027640819 1.0986533938938503 503.87596197623685 503.87596196821045 1.0971475039658183 
-81.088391082798296 -67.367203951157094 102.16878408303968 -81.088391082798339 -67.367203951157094 102.16878408303971 117.22316602437182 9.0439099315396212e-07 1.0112061677199590e-05 -1.1720953762621401e-05 0.0000000000000000 -1.1067233074424365e-08 4.2350845053107378e-10 -1.4713611905747824e-05 -0.0034448767503452017 -7.3021387367094836e-11 -2.6113572658620957e-11 -4.6329056053031182e-10 0.0000000000000000 -79.662532843379708 -67.531450170133141 108.61547480962874 295.38956150422752 0.0000000000000000 0.0000000000000000 0.0000000000000000 0.0000000000000000 3.2007064359140518 3.4105220264159524 1.2099335921324734 1.0999752668948963 539.95339383950147 539.95339383043756 1.0999683619255254 
-96.137902481138255 -81.846384436372176 102.18036249657550 -96.137902481138255 -81.846384436372148 102.18036249657551 134.40403773414039 4.4716408189503711e-06 1.6917145721282792e-05 -2.0530216654261817e-05 0.0000000000000000 -1.2885478628543724e-08 -1.7748358338565143e-11 -1.4711911530795875e-05 -0.0035301808185576699 -2.1292170168918757e-11 -1.6807710377236309e-10 -6.9181358154946701e-10 0.0000000000000000 -94.477787882002133 -81.839503548705352 108.62630821647583 293.80807890400462 0.0000000000000000 0.0000000000000000 0.0000000000000000 0.0000000000000000 3.2023751030077241 3.4141304039656677 1.2118788925973514 1.1005593839175156 505.22315893057026 505.22315893066354 1.1008505506591826 
-48.125142314698429 -126.54142443142557 134.23425558382067 -48.125142314698444 -126.54142443142561 134.23425558382075 58.819164416162472 1.2274410275887955e-05 -1.0119386953482747e-05 -1.5149226516714296e-05 0.0000000000000000 -4.8818661693569664e-07 -4.8946490987998730e-07 -1.1079166892272764e-05 -0.0024143730895667026 -2.2113819193945264e-11 -2.0072802169718094e-11 1.0478424228089803e-10 0.0000000000000000 -47.292355390977058 -125.96433165720771 138.67232254046354 244.31333887135355 0.0000000000000000 0.0000000000000000 0.0000000000000000 0.0000000000000000 3.1883593999023003 3.3833930785131403 1.1950989428671361 1.0933620741408854 598.58749683929966 598.58760604037900 1.0932056202057447 
-34.877172962117484 -141.13388721058797 134.85761506771127 -34.877172962117477 -141.13388721058797 134.85761506771129 59.115657207790008 -4.9747122314068384e-06 8.8106282060752301e-06 -3.2335939591177855e-06 0.0000000000000000 -2.4322639567355085e-07 -4.1482549872013851e-07 -1.0361827963543959e-05 -0.0024327260783193827 6.9549824978109095e-11 -2.9431347099560657e-10 2.6768982613800580e-10 0.0000000000000000 -34.196989160350306 -140.43319657724166 139.21506628885933 210.16870282748488 0.0000000000000000 0.0000000000000000 0.0000000000000000 0.0000000000000000 3.1904951168132509 3.3883093962402131 1.1978937153458953 1.0946071271066180 601.46658256913395 601.46299445777868 1.0944842571793780 
-31.603825657487690 -128.19581334697611 138.62789365020259 -31.603825657487704 -128.19581334697611 138.62789365020254 59.745650822942139 -2.4625494745539962e-06 -6.6986623568649961e-06 1.8126904272146290e-06 0.0000000000000000 -5.0886053148957436e-09 -1.4302413697819816e-09 -9.3593497094701661e-06 -0.0023371442600975101 -4.9824308377007586e-11 -8.9918474365992598e-11 3.0196266488684556e-10 0.0000000000000000 -30.948229910445860 -127.64113600963313 142.72864290474456 229.21992526850030 0.0000000000000000 0.0000000000000000 0.0000000000000000 0.0000000000000000 3.1906402415316637 3.3886452336836217 1.1980839274484587 1.0948959511085925 604.64795625449563 604.64813111086301 1.0945670420837386 
-49.259147792447230 -131.53402817271541 142.99713897908069 -49.259147792447251 -131.53402817271538 142.99713897908075 61.448786183614097 3.7323345394864937e-06 -4.7830948306854293e-06 3.7315863099527462e-06 0.0000000000000000 -3.7082809520835980e-07 -3.6441423630615898e-07 -9.5128578464189965e-06 -0.0024191887063762726 7.6890035259130993e-11 1.9349966724120928e-10 -1.9145563461690319e-10 0.0000000000000000 -48.406431667502837 -130.90513559487593 146.85896726379221 225.63426853136377 0.0000000000000000 0.0000000000000000 0.0000000000000000 0.0000000000000000 3.1879289293926165 3.3826733700432081 1.1948134764986167 1.0935888564381804 592.91972885021630 592.92025024637235 1.0930756813414317 
-53.996096526255336 -84.987070124565804 69.187995587497738 -53.996096526255322 -84.987070124565832 69.187995587497710 128.30821039954623 1.0360996275440651e-05 2.5424719941421704e-05 9.1644152355101712e-05 0.0000000000000000 -5.4888294451714607e-08 -2.4057121235248417e-06 -2.4025958918284737e-05 -0.0070539862926474357 -6.6651074259654517e-10 -1.0191390981247672e-08 -3.9536514792380470e-09 0.0000000000000000 -53.009977022357148 -84.940192361847963 77.707205907375524 356.07450292316213 0.0000000000000000 0.0000000000000000 0.0000000000000000 0.0000000000000000 3.2056121681343606 3.4207748626444778 1.2152899573418345 1.1012621516867644 537.48256868386989 537.48256868291344 1.1023989050649279 
-41.095403527411953 -85.701808480776037 58.214860150643069 -41.095403527411939 -85.701808480775995 58.214860150643069 115.76802330717530 2.0452868434244950e-05 1.1015275754279968e-06 -1.2894529662351236e-05 0.0000000000000000 -1.3787115102528697e-07 -2.2032455805544659e-07 -2.1626046544810503e-05 -0.0064300957968468422 -1.0033934954261524e-09 -5.4245622034373989e-10 1.8259534627883692e-09 0.0000000000000000 -40.313282635619565 -85.652866469445740 67.489144002613742 334.72004880612383 0.0000000000000000 0.0000000000000000 0.0000000000000000 0.0000000000000000 3.1996056392545893 3.4078374636175952 1.2083378017775079 1.0992593910460313 541.22702295742226 541.22702295192175 1.0992413311154232 
-43.752999923217246 -94.270189424543517 75.129365883156410 -43.752999923217232 -94.270189424543503 75.129365883156410 115.35255866371047 5.0338608370001858e-06 -6.9224591770953529e-06 1.9426156999408167e-05 0.0000000000000000 -5.6415964804406031e-07 1.2709966278394892e-06 -2.3597333700844353e-05 -0.0058155520735471596 -3.4979562578094240e-09 1.9704296959980635e-09 -6.2465477043922970e-09 0.0000000000000000 -42.930125987095458 -94.071309017270835 83.274511392489799 283.94561953274422 0.0000000000000000 0.0000000000000000 0.0000000000000000 0.0000000000000000 3.2064436223226478 3.4226177320522448 1.2163047693514288 1.1010193000259549 546.25211217251297 546.25211222170594 1.1028642522717507 
-45.823266778439063 -99.181478706722075 58.776838025173078 -45.823266778439098 -99.181478706722046 58.776838025173056 136.68943021764738 9.3251487663264322e-05 -3.1412787583639449e-05 -3.0814214682133168e-05 0.0000000000000000 -6.8065669212025171e-09 -5.4601934085241055e-10 -2.1086007132353757e-05 -0.0067110226731485921 -1.1674272097663686e-09 1.1271346440672403e-09 3.3477390463371669e-09 0.0000000000000000 -44.946335306532468 -98.969717126470769 68.015559797458934 339.42980011114588 0.0000000000000000 0.0000000000000000 0.0000000000000000 0.0000000000000000 3.2050070028258371 3.4193765110041583 1.2144909198135785 1.1008827292309091 482.46030785113146 482.46030784298102 1.1020387967935188 
-36.381538788579576 -101.08724464480228 66.636173476722078 -36.381538788579554 -101.08724464480230 66.636173476722036 102.47224257127924 2.5706987741680599e-05 -4.4431171792845298e-06 -6.5624082757056260e-07 0.0000000000000000 -2.9315792059010740e-07 9.9734420282676324e-07 -2.1402749954204975e-05 -0.0055562280672926201 -1.6069324888146073e-09 1.7958478595658509e-09 -1.2782188499031678e-09 0.0000000000000000 -35.672109309640206 -100.83293553867907 75.360366609178811 338.44965823895870 0.0000000000000000 0.0000000000000000 0.0000000000000000 0.0000000000000000 3.1999262576286229 3.4084986058529561 1.2086773584492578 1.0997132994913108 569.26446906615809 569.26446902879422 1.0993975271781371 
-49.916437650343127 -112.35958833154078 55.963391509179942 -49.916437650343134 -112.35958833154079 55.963391509179935 119.97968599577460 5.6036723372096683e-05 -3.9145546664480365e-05 8.9766548633321879e-06 139.57192896260702 -7.3011013346224729e-09 -9.4762053759467314e-10 -2.1499180428818931e-05 -0.0053548493211504058 3.6716254348029030e-10 5.3023808390315227e-10 -8.0427394065225200e-10 -0.0053279691687187353 -48.975793059600008 -111.99207679200002 65.383142959360015 326.57209562220959 0.0000000000000000 0.0000000000000000 0.0000000000000000 0.0000000000000000 3.1969434204497604 3.4024303877996966 1.2055918136019521 1.0993141302159291 515.92738189261968 515.92738192455204 1.0979946922004287 
-25.804867695563075 -110.83132052862398 58.193393147822761 -25.804867695563075 -110.83132052862400 58.193393147822739 79.018172130417383 8.5006713828004168e-06 -1.1582340317635455e-05 -5.1075944831246092e-06 0.0000000000000000 -4.3879854749739885e-09 -9.0104401717638893e-10 -2.1171689887466979e-05 -0.0050064566513234173 -9.1813635630754209e-11 5.7390474823315195e-10 -6.4178881099364274e-10 0.0000000000000000 -25.239536857883341 -110.48187134057846 67.469656361758609 349.35568362690350 0.0000000000000000 0.0000000000000000 0.0000000000000000 0.0000000000000000 3.1979261651056974 3.4045414179049507 1.2067238110030234 1.0987118131774363 599.48118044439582 599.48118045266904 1.0985099781002716 
-44.939020293576142 -111.62746019937404 67.793876680041180 -44.939020293576142 -111.62746019937410 67.793876680041180 101.52128855934295 1.6066590168499643e-05 -2.9668710100883308e-05 -9.5473833725826965e-06 0.0000000000000000 -6.6997355996356589e-09 -9.2531793338679346e-10 -1.9761795169159768e-05 -0.0046349838782612576 5.7288349736652036e-10 -7.4996174482845285e-10 -1.9149152269412729e-09 0.0000000000000000 -44.075852747763513 -111.26860156453857 76.452402029906395 268.59635586333832 0.0000000000000000 0.0000000000000000 0.0000000000000000 0.0000000000000000 3.1999154799836922 3.4085351271557913 1.2087231565324170 1.1008353725787772 561.89667613434369 561.89667603575617 1.0994152246130904 
-59.258277911414240 -107.03577492818745 98.676934339927840 -59.258277911414261 -107.03577492818748 98.676934339927826 54.773428800936586 -1.0742222596105376e-05 -4.5072386233595262e-05 -5.3905324344298260e-06 0.0000000000000000 -5.3846531441018235e-07 3.7971282671631113e-07 -1.9226541874306614e-05 -0.0025738705347128155 5.3810496550927590e-11 4.6386306215149400e-10 -1.1217524705805646e-09 0.0000000000000000 -58.254647241440821 -106.62760994408018 105.33920711112118 241.62621693813244 0.0000000000000000 0.0000000000000000 0.0000000000000000 0.0000000000000000 3.1848785816822844 3.3768361058852987 1.1920319959506240 1.0926140206036796 597.05257773260757 597.05257750173212 1.0918019271202726 
-65.505886609743541 -90.267659025077918 89.452473365695852 -65.505886609743570 -90.267659025077876 89.452473365695838 99.471535964020717 1.7953076448888363e-05 -3.6528422470572279e-05 -4.5630368529979704e-06 0.0000000000000000 -1.0139168539888078e-06 9.5828997959298973e-07 -2.1102914194627340e-05 -0.0034653101497468812 -2.7700688010359359e-09 2.1478275803016465e-10 2.9987424329852682e-10 0.0000000000000000 -64.370648572599308 -90.090304358695661 96.688480747766732 239.98138923263960 0.0000000000000000 0.0000000000000000 0.0000000000000000 0.0000000000000000 3.1986481265857809 3.4062402506912552 1.2077066460462189 1.0993991786087174 564.30273788114766 564.30273792524520 1.0989559834928355 
-77.197435448370953 -99.985267495540995 94.395145171647556 -77.197435448370939 -99.985267495540953 94.395145171647542 90.217498617573725 3.6987572402743541e-05 -3.8945974656339219e-05 2.9610247907907188e-06 0.0000000000000000 -9.1489408525428432e-07 3.6693720760900584e-07 -1.9618217897373760e-05 -0.0034515412043459206 -7.0446789820778447e-10 8.1492425020615422e-10 -1.6220367046134941e-09 0.0000000000000000 -75.913673002404863 -99.702254402691466 101.32606574872912 288.13617662859207 0.0000000000000000 0.0000000000000000 0.0000000000000000 0.0000000000000000 3.1952573293738125 3.3991442171136024 1.2039914294674929 1.0977528934118594 567.90344897910961 567.90344922498082 1.0972636047319118 
-56.143510097780542 -93.832032578712329 96.534965142670799 -56.143510097780556 -93.832032578712329 96.534965142670842 89.210066377034977 3.4815189729131090e-06 -1.0660237412540422e-05 4.5036006018746076e-06 0.0000000000000000 -3.9021441898606259e-07 7.5526012116656338e-07 -1.9807157762651479e-05 -0.0029460507843215443 3.2606483865282218e-10 -6.1896600283099716e-10 5.4211044690881007e-10 0.0000000000000000 -55.164710769962618 -93.586508083202432 103.32606452766413 222.68531933077850 0.0000000000000000 0.0000000000000000 0.0000000000000000 0.0000000000000000 3.1960211831009433 3.4009923982392345 1.2050892281208865 1.0977223263523632 567.23089454250794 567.23089407558234 1.0977682028076723 
-46.652618748026470 -177.02761786887729 152.43694144935606 -46.652618748026491 -177.02761786887729 152.43694144935611 65.885299267024578 1.1140079740133370e-05 2.5141084983317379e-05 -3.4618008416659100e-05 0.0000000000000000 -6.9067682129109187e-09 -2.9183763183837641e-09 -7.3313994128909607e-06 -0.0026610753381697562 2.4424104238485146e-10 1.4887676684714735e-10 -2.1356683078066790e-10 0.0000000000000000 -45.762777822239421 -175.89580528354742 155.64915507299250 248.91339099022119 0.0000000000000000 0.0000000000000000 0.0000000000000000 0.0000000000000000 3.1916710470996472 3.3914129051719617 1.1998384895252663 1.0965645029781266 611.05446722435772 611.03707289001261 1.0953710519171380 
-52.415032449313934 -186.81024327850028 165.80143107462058 -52.415032449313919 -186.81024327850034 165.80143107462055 79.167374969133505 3.9797860415327745e-06 -1.6180347163008783e-06 -3.2338602307242161e-06 78.680239622360105 -7.6029754159101515e-09 -3.2164729768524584e-09 -5.3687354188980407e-06 -0.0025023211045713295 -4.5282067301696553e-11 -3.4101519840988443e-11 -3.8021593049109652e-11 -0.0025035089969162733 -51.435495451599998 -185.56281141599996 168.15371392000000 294.81703600272857 0.0000000000000000 0.0000000000000000 0.0000000000000000 0.0000000000000000 3.1989445396252800 3.4067059850764729 1.2078723159551310 1.0986785934362857 599.65404642380884 599.65247909807465 1.0990329949689122 
-43.508334005129363 -172.26066788466557 163.77800323316015 -43.508334005129349 -172.26066788466557 163.77800323316021 77.313765407837963 3.2693911857429501e-06 -3.0679555507599588e-06 -1.8483433686046401e-05 0.0000000000000000 1.1302726469188620e-08 1.2055611651870115e-07 -5.7944022388878869e-06 -0.0025171992137610522 1.2122091570776640e-10 -4.6763419477169074e-12 1.4361835452216398e-10 0.0000000000000000 -42.672974891599750 -171.18173466392949 166.26923354793541 271.88244999766295 0.0000000000000000 0.0000000000000000 0.0000000000000000 0.0000000000000000 3.1986178321109877 3.4059288267169259 1.2074183332467887 1.0983481049602126 600.90498133186327 600.89102778366805 1.0988259115052026 
-60.487932353486016 -179.17457047008085 154.68291861120485 -60.487932353486023 -179.17457047008077 154.68291861120494 84.525681360819974 2.2377087359240789e-05 2.9375471062586735e-06 2.1763565824318044e-07 0.0000000000000000 -8.5783241066117455e-09 -2.9837995407788753e-09 -7.0015627553488011e-06 -0.0026204770858895454 -1.1756998812918067e-10 3.2787251108497888e-11 -9.5662434462842080e-12 0.0000000000000000 -59.382734921100123 -178.01738339707751 157.75061606229067 243.94852352315442 0.0000000000000000 0.0000000000000000 0.0000000000000000 0.0000000000000000 3.1988590750593087 3.4065390644735767 1.2077907502843102 1.0984406944002285 585.36914702919591 585.37567390433617 1.0989959331879751 
-31.285267738307855 -103.02739217220106 87.995391728238928 -31.285267738307869 -103.02739217220100 87.995391728238928 67.241039667020317 -1.5785651170012116e-05 -3.7403340559616191e-06 4.0638438851282116e-05 0.0000000000000000 2.7722447214562626e-07 2.1306394879037383e-07 -1.8756777918247483e-05 -0.0037129204708226254 6.3573491180199806e-10 -2.6976374793279999e-09 -6.7209894601211415e-10 0.0000000000000000 -30.660097366607719 -102.72526557899965 95.328291536857705 204.58703120518373 0.0000000000000000 0.0000000000000000 0.0000000000000000 0.0000000000000000 3.1937283709262640 3.3954768175884467 1.2018421825897720 1.0964674082204640 597.57588941239419 597.57588971710913 1.0962849973066315 
-19.267798247184004 -111.26047239629762 85.857826258396102 -19.267798247184018 -111.26047239629767 85.857826258396059 64.448622787149390 9.9070024172233702e-06 -5.7875869794441542e-06 1.1835498151591828e-05 0.0000000000000000 -3.5981922996697335e-09 -9.1412244440647328e-10 -1.7108984302183217e-05 -0.0038688348854567932 -1.4638260023585997e-09 5.5638346200589576e-11 2.9418491893559656e-10 0.0000000000000000 -18.804221549666405 -110.90595113131390 93.354036648627854 267.24800799435923 0.0000000000000000 0.0000000000000000 0.0000000000000000 0.0000000000000000 3.1959843074848200 3.4002468868835800 1.2043618465009169 1.0977284697407359 610.69414505595705 610.69414475790347 1.0974346417875305 
-34.486969560594893 -105.03381210882051 76.961894469561571 -34.486969560594872 -105.03381210882057 76.961894469561614 86.540508403556288 2.5447001187094746e-05 -2.2373168832095779e-05 1.4086484181471294e-05 0.0000000000000000 5.6833501739661142e-07 6.3256324981441421e-07 -2.0494569911584929e-05 -0.0040114080178377974 1.2530566898795213e-09 8.2486966619426677e-11 -3.5145780774996126e-10 0.0000000000000000 -33.815892125380543 -104.71065599625929 85.007910193808286 270.69679205096202 0.0000000000000000 0.0000000000000000 0.0000000000000000 0.0000000000000000 3.2009287627980609 3.4105403295529162 1.2097164053212592 1.0992534168777677 584.97352265741392 584.97352264720075 1.0998694616104674 
-19.386609806304037 -100.60830616818672 88.042420106920190 -19.386609806304030 -100.60830616818674 88.042420106920190 68.305050115014026 1.6425072793521915e-05 -1.6097322942270133e-05 1.8479866391666316e-05 0.0000000000000000 -3.6125470948000790e-09 -5.8951099557447151e-10 -1.6788162202630019e-05 -0.0035326933514909409 -5.0578718058486076e-10 -3.9450821196339647e-10 -3.7222073165622200e-10 0.0000000000000000 -18.921183722278450 -100.37968114352928 95.398064000337470 185.31956687594098 0.0000000000000000 0.0000000000000000 0.0000000000000000 0.0000000000000000 3.1973128630916534 3.4033627224530232 1.2061612080965283 1.0981860789783826 612.62013959798912 612.62013949159859 1.0982548919300330 
-31.783715835549877 -118.43212411567696 171.17222916565171 -31.783715835549863 -118.43212411567688 171.17222916565163 95.931436433052411 -9.3975596238620875e-06 9.5753702089090563e-06 -3.6691602485984081e-05 0.0000000000000000 -1.2739422926462479e-07 -8.0721971348356858e-08 -4.5614963659327609e-06 -0.0028583384582084631 6.5338733100389808e-11 -2.2152433655518168e-10 1.7643430679156738e-11 0.0000000000000000 -31.124431206993112 -117.97934695114738 173.21200361760444 258.17126679857051 0.0000000000000000 0.0000000000000000 0.0000000000000000 0.0000000000000000 3.1979087578449938 3.4044313820155403 1.2066287053652365 1.0982622421671751 564.16257515148800 564.16245783599163 1.0984666293556158 
-31.290089036196399 -133.76395776838979 162.20672800176331 -31.290089036196385 -133.76395776838984 162.20672800176334 77.877428652311764 -2.8986422023689805e-05 1.0433779787548235e-05 -5.7566167553933807e-06 0.0000000000000000 -2.6669900037429195e-07 8.0614593897822317e-08 -5.8564569833343071e-06 -0.0025906887217712273 -1.7109044313124288e-10 1.3753356037727119e-10 1.0584191276137307e-10 0.0000000000000000 -30.642131568542830 -133.13454878399213 164.80820313575899 262.24283076768535 0.0000000000000000 0.0000000000000000 0.0000000000000000 0.0000000000000000 3.1950548885300138 3.3982611127393230 1.2033019993289995 1.0966416542515969 587.21212906847359 587.21299851385504 1.0969496747115308 
-43.484867380036604 -120.62512216251424 160.98178447417303 -43.484867380036583 -120.62512216251432 160.98178447417297 65.433021004966037 -2.5083410368506280e-05 -3.2985579267794319e-05 -1.8940738080277677e-05 0.0000000000000000 -3.5185281945759031e-07 -2.7391125609961954e-07 -5.8757285206678953e-06 -0.0028496525104190823 -3.2252333660286619e-10 -3.7325716694437193e-10 1.3040445210231276e-09 0.0000000000000000 -42.676694985445003 -120.10595080876966 163.70375490782192 268.28772502602959 0.0000000000000000 0.0000000000000000 0.0000000000000000 0.0000000000000000 3.1838005259496067 3.3745712871981408 1.1908445793115667 1.0938319462094730 591.91411768307989 591.91407105142162 1.0912627948529297 
-24.289059532785014 -114.62829244642414 159.02442597943380 -24.289059532785014 -114.62829244642408 159.02442597943383 81.482843501540373 -5.9167770510547282e-06 -2.0959277198935549e-06 -9.1734562950051541e-06 0.0000000000000000 -4.2048490245250036e-09 -1.0167554576057114e-09 -6.3639836049844689e-06 -0.0026048787466131274 -1.7398634424522250e-11 8.7829196999702891e-11 1.8235398092871142e-10 0.0000000000000000 -23.747323328369049 -114.23396745764113 161.81277151251504 321.01516800445251 0.0000000000000000 0.0000000000000000 0.0000000000000000 0.0000000000000000 3.1968667138192712 3.4022091471047173 1.2054460449400635 1.0976345022308762 589.70912961787110 589.70896320068312 1.0979287193102385 
-6.7318944178247202 -105.27128883118218 102.93404931774984 -6.7318944178247202 -105.27128883118213 102.93404931774988 50.429699380104104 -1.2614864382947677e-06 2.4604155867860531e-06 1.3047238190117207e-05 51.565556492525495 -2.0836281033886905e-09 -7.3161110503150439e-10 -1.4601227626087619e-05 -0.0023699432236824534 -7.5668909052072201e-11 2.9001152634648495e-10 -7.0726574190472949e-10 -0.0021711382568731547 -6.4634479885999987 -104.98755276399999 109.33149947120000 327.67017865987640 0.0000000000000000 0.0000000000000000 0.0000000000000000 0.0000000000000000 3.1983640489466980 3.4053800629828164 1.2071232574598942 1.0981655528672267 642.87008841846477 642.87008205590041 1.0986927608950994 
-12.159773668245336 -97.306481833206817 94.497380327283494 -12.159773668245336 -97.306481833206817 94.497380327283494 62.581779119253312 1.0275853691523323e-05 -1.4608567335427088e-05 7.3779984371746593e-07 57.050933580638841 -2.7394134183289509e-09 -4.8889059467427387e-10 -1.5840208460460303e-05 -0.0030916799446549584 -1.2460811324869243e-10 5.2121458781222928e-11 -6.4864581279419716e-10 -0.0030096743620782423 -11.806838433999999 -97.116880539599975 101.43768333439998 212.90238721710071 0.0000000000000000 0.0000000000000000 0.0000000000000000 0.0000000000000000 3.1992050141943804 3.4073403781506668 1.2082489643744474 1.0986533938938512 633.42739119780720 633.42739217968312 1.0992046724165185 
-16.266463423536191 -110.70809560413123 96.271263194787210 -16.266463423536194 -110.70809560413122 96.271263194787238 51.253983520856927 -1.5549135294233505e-05 -1.3849170652503269e-06 -5.5802034968906648e-06 0.0000000000000000 -3.2355776391490569e-09 -8.9729768060209370e-10 -1.5579701981849325e-05 -0.0028178315498485463 7.2505448458016819e-11 -2.2353636133641349e-11 -1.3156177914581969e-09 0.0000000000000000 -15.849604639409371 -110.36010279166017 103.09742667861765 236.22178992679409 0.0000000000000000 0.0000000000000000 0.0000000000000000 0.0000000000000000 3.1971679702520306 3.4028287575418177 1.2057650007398495 1.0977265960590457 640.07101822615903 640.07101937477080 1.0980729564488672 
-24.291350519648066 -99.752725514504732 95.399596538977022 -24.291350519648066 -99.752725514504675 95.399596538977036 63.541615983391459 -3.3089641852024108e-06 -2.2253559396501961e-05 9.4664221637492173e-06 0.0000000000000000 -4.2051281901045456e-09 -5.6342808196774286e-10 -1.5707712021750808e-05 -0.0029355312504008228 2.8484304677165325e-10 7.1802956549116152e-10 -1.2092156397889470e-09 0.0000000000000000 -23.749578654390465 -99.534212460059550 102.28184693721489 211.57004919854941 0.0000000000000000 0.0000000000000000 0.0000000000000000 0.0000000000000000 3.1949198303420583 3.3979242473086289 1.2030979241750579 1.0971276678958326 612.89346423885002 612.89346642345890 1.0968575150017335 
-55.013046035590548 -108.80164945091835 107.73921399929519 -55.013046035590577 -108.80164945091836 107.73921399929515 31.298994925972828 -5.5338205400816064e-06 -5.0130986379175918e-05 3.4037872715035986e-05 0.0000000000000000 -1.8405179507226981e-07 3.9155551366081558e-07 -1.6871930055383590e-05 -0.0016970442607257823 2.8413277875743181e-09 9.5021280677692122e-10 -6.3857602474605951e-11 0.0000000000000000 -54.087034329299712 -108.37170302860723 113.84396407125838 191.01171882188567 0.0000000000000000 0.0000000000000000 0.0000000000000000 0.0000000000000000 3.1770136975313488 3.3603366869417641 1.1833830437528225 1.0892659913652378 620.99918763902906 620.99919084552448 1.0878338430673784 
-42.440320957655764 -108.16144299534371 104.68474080268628 -42.440320957655778 -108.16144299534378 104.68474080268621 42.622195194777717 1.1063423081826909e-05 -3.9002767370501774e-05 3.7425458520653927e-06 0.0000000000000000 -5.5072622625038720e-07 5.9606890812664908e-07 -1.6963534917194839e-05 -0.0022045583452353938 -2.1739927370506353e-10 2.7376367389123405e-10 2.2329276831999540e-10 0.0000000000000000 -41.690910404717421 -107.74885629568415 110.97670241767709 270.34727434602189 0.0000000000000000 0.0000000000000000 0.0000000000000000 0.0000000000000000 3.1842718720267542 3.3758443176333079 1.1916530611260321 1.0918394522173258 611.37616100730020 611.37614994498449 1.0916284814637114 