# For a description of the Tecplot format see the Tecplot User's guide.
#
Variables=x,y,z,s_u,s_v,s_w,s_p,mono_f_vel_u,mono_f_vel_v,mono_f_vel_w,const,u_nu,v_nu,w_nu,p_nu,x_nu,y_nu,z_nu,const,u_ref,v_ref,w_ref,vol_ref,x_ref,y_ref,z_ref,const,I1,I2,I3,J,p1,p2,p3
Zone f=fepoint, n=1339, e=6475, et=brick, c=black
-58.8642 -70.4501 176.047 -58.864217000404636 -70.450141489293955 176.04665025341751 -69.388703508653450 -1.3408716477501847e-08 -2.0283425738124393e-07 6.6471786462949908e-07 -69.819799637651286 1.0124509806919146e-09 -5.2458482002748503e-11 1.1188936355210899e-07 9.6427547523425107e-05 5.5612001585607329e-14 -1.6958233504118577e-13 -1.0514156011746838e-14 9.6634945878794855e-05 -58.668039002000000 -70.473359259200009 176.35421013599998 215.13583165143561 0.0000000000000000 0.0000000000000000 0.0000000000000000 0.0000000000000000 3.0342785120034326 3.0688314629421329 1.0345535898759517 1.0168794568824251 252.76955700730426 252.76957044226413 1.0171303874487820 
-65.177152017041621 -76.404253099712108 183.80766639238189 -65.177152017041621 -76.404253099712122 183.80766639238195 -72.193128756385647 -1.5211446186546087e-06 -2.6871882350137267e-06 2.8879578488529348e-06 -72.179821672764234 1.1045711810486749e-09 -2.3570673191031233e-11 7.8886900123364967e-08 9.6788664146660799e-05 1.0186396608032553e-12 2.6706428385979326e-14 -9.1055829897694191e-13 9.7511976350652516e-05 -64.963123215600007 -76.414687385200040 184.02450960799996 253.42820447565578 0.0000000000000000 0.0000000000000000 0.0000000000000000 0.0000000000000000 3.0349259178560151 3.0701407052617919 1.0352154891579102 1.0168794568824251 260.07390332004485 260.07391367591975 1.0174560982406680 
-69.890950406403149 -71.563318459518598 176.93954928932851 -69.890950406403149 -71.563318459518584 176.93954928932854 -70.140610772333886 -1.3145479813236947e-06 -4.7364375456931632e-07 2.6755657711427932e-07 -71.338990346002177 1.1733613212994156e-09 -4.7059217633815826e-11 1.0809246386855877e-07 9.6659215116802664e-05 6.9347476650051413e-13 7.2435113070959624e-14 1.0794213678779802e-13 9.6995842052350904e-05 -69.663592608799988 -71.584146237200002 177.23667228800005 218.29881668600640 0.0000000000000000 0.0000000000000000 0.0000000000000000 0.0000000000000000 3.0352821793615559 3.0708571092227288 1.0355756444898323 1.0168794568824255 257.83679157512762 257.83678861052374 1.0176333835067675 
-57.356921167820971 -87.740679358278797 171.30788860216862 -57.356921167820943 -87.740679358278754 171.30788860216856 -66.084192658744243 -1.8514366967812836e-06 2.6372129653827520e-06 6.8873085297715124e-06 0.0000000000000000 9.9045238330375283e-10 3.1422475732512112e-11 1.3204017967893833e-07 9.5773003689495045e-05 8.9654496312512617e-13 -1.3186528231325441e-12 -4.8187635681512852e-13 0.0000000000000000 -57.165005282198301 -87.726774323660578 171.67083873969227 259.76550921814646 0.0000000000000000 0.0000000000000000 0.0000000000000000 0.0000000000000000 3.0311994489136640 3.0626044358969731 1.0314053064035205 1.0158815916207882 235.57506542201941 235.57502571615964 1.0155807225910101 
-89.180246005062060 -83.382470333244811 116.10471334851755 -89.180246005062088 -83.382470333244797 116.10471334851761 -60.655117560579129 -6.4121499128862294e-07 4.5355932934888909e-06 -2.1246852662591034e-06 0.0000000000000000 1.4548557324134404e-09 1.0271283823470867e-11 3.6678264070388877e-07 0.00010079851553755150 -4.6185535445171920e-13 -2.2203107429849214e-12 1.4938492770999645e-12 0.0000000000000000 -88.898344731952406 -83.377922378373768 117.11292023788836 283.91631954144174 0.0000000000000000 0.0000000000000000 0.0000000000000000 0.0000000000000000 3.0313276843494923 3.0628303509394170 1.0315028719571335 1.0159286243077355 225.99101115024311 225.99118083976734 1.0156290022257688 
-97.902256899893843 -66.870798008358193 107.10676969773569 -97.902256899893828 -66.870798008358193 107.10676969773569 -68.252171689947872 -4.5341998762910779e-08 1.4464662665173691e-06 -8.9873847439395501e-06 -69.576988817621910 1.5821448005881589e-09 -6.9830252691360784e-11 4.0504491938264664e-07 0.00010425078847668142 -4.2555232027662540e-13 -5.7960449635873443e-13 4.0164686751925277e-12 0.00010411885903915365 -97.595692787999965 -66.901700632800015 108.22015140479995 322.25788568967050 0.0000000000000000 0.0000000000000000 0.0000000000000000 0.0000000000000000 3.0348392429855937 3.0699750687427536 1.0351365565183719 1.0168794568824253 252.68565430163110 252.69007883835610 1.0174172689190843 
-79.918244370122892 -67.501902527814366 107.50676859428287 -79.918244370122906 -67.501902527814323 107.50676859428285 -66.825929565551689 -2.4449084062831829e-06 2.1407635446695311e-06 -4.1558426815867755e-06 0.0000000000000000 1.3196976532403591e-09 -6.6755323491207719e-11 4.0334398399011212e-07 0.00010367113251945364 1.6502279810463051e-12 -5.5607303189919633e-13 3.4867245834668662e-12 0.0000000000000000 -79.662532843379708 -67.531450170133141 108.61547480962874 295.38956150422752 0.0000000000000000 0.0000000000000000 0.0000000000000000 0.0000000000000000 3.0324013078588212 3.0650328876139223 1.0326320355962961 1.0162380220149194 241.30832457959050 241.30990420092289 1.0161845457662293 
-94.775510633800280 -81.840741409819486 107.51773012788229 -94.775510633800280 -81.840741409819444 107.51773012788227 -66.031755848390262 -3.4595503757073157e-06 2.8095990083441079e-06 -6.7030950602855650e-06 0.0000000000000000 1.5365045867576919e-09 2.7910174171807971e-12 4.0329737682753830e-07 0.00010435535199974539 2.5476195009897100e-12 -1.1199915520722380e-13 4.9664649754362076e-12 0.0000000000000000 -94.477787882002133 -81.839503548705352 108.62630821647583 293.80807890400462 0.0000000000000000 0.0000000000000000 0.0000000000000000 0.0000000000000000 3.0323414880201600 3.0648989859281626 1.0325578944835530 1.0162039545459811 238.34357837998419 238.33756938642611 1.0161480073118232 
-47.482789964544082 -126.05067056826010 137.94613559385667 -47.482789964544061 -126.05067056826010 137.94613559385661 -35.875560418451506 -5.6709893627748788e-08 2.1345898930903707e-06 6.8128963433557949e-06 0.0000000000000000 2.9520076567251271e-08 -1.2409819415226174e-08 2.8124271401621252e-07 9.0052239280332904e-05 8.2122290662958830e-14 -1.2057922567360877e-12 -2.6845696504637725e-14 0.0000000000000000 -47.292355390977058 -125.96433165720771 138.67232254046354 244.31333887135355 0.0000000000000000 0.0000000000000000 0.0000000000000000 0.0000000000000000 3.0373973848635565 3.0751761696033388 1.0377799497568136 1.0188332170042638 206.31793407318941 206.31787317656287 1.0187148101653316 
-34.333973411372625 -140.56377456862583 138.47488274280806 -34.333973411372646 -140.56377456862583 138.47488274280798 -35.945297328208127 3.4870816294631561e-06 -8.0799598054302738e-07 3.4171127859283904e-06 0.0000000000000000 1.1524690420697762e-08 1.4902763429171347e-09 2.7560252426837117e-07 8.8324146458859136e-05 -2.8271562632556498e-12 3.8378921808947016e-13 1.7817680089783380e-12 0.0000000000000000 -34.196989160350306 -140.43319657724166 139.21506628885933 210.16870282748488 0.0000000000000000 0.0000000000000000 0.0000000000000000 0.0000000000000000 3.0366988671086679 3.0737510547555527 1.0370531545504447 1.0183813417508820 204.17756754101754 204.17794134420512 1.0183582386739003 
-31.065803582756200 -127.74092160998556 142.02339328460482 -31.065803582756196 -127.74092160998555 142.02339328460491 -39.316368418445158 2.4387090759241769e-06 1.1560565003168858e-06 6.5293141230155464e-06 0.0000000000000000 6.0678428601135259e-10 2.2546703393189205e-10 2.5656768176673950e-07 8.9106242218971914e-05 -1.0563655312556660e-12 -8.2598460342547499e-13 1.4834968104650352e-12 0.0000000000000000 -30.948229910445860 -127.64113600963313 142.72864290474456 229.21992526850030 0.0000000000000000 0.0000000000000000 0.0000000000000000 0.0000000000000000 3.0355919276541230 3.0715027980116778 1.0359116876501819 1.0179293096064566 205.99128953715541 205.99152542152564 1.0177973060297743 
-48.598170105491363 -131.00322515712125 146.22430350418324 -48.598170105491363 -131.00322515712116 146.22430350418333 -37.280336078007956 2.1470944307393036e-06 6.4659950524002627e-06 -1.3062787855515327e-06 0.0000000000000000 2.8198950904049594e-08 -1.2137811864676629e-08 2.4532041028506971e-07 8.8201694939758874e-05 -8.7284275858448960e-13 -5.3654969004586191e-12 3.4240401198908520e-12 0.0000000000000000 -48.406431667502837 -130.90513559487593 146.85896726379221 225.63426853136377 0.0000000000000000 0.0000000000000000 0.0000000000000000 0.0000000000000000 3.0376894404630828 3.0757584944973164 1.0380701714649847 1.0187451364823308 208.17357992308905 208.17363807359740 1.0188572606739152 
-53.191118832620823 -84.925198361973528 76.191621255719980 -53.191118832620830 -84.925198361973543 76.191621255720008 -65.082566865610772 -1.8678469242507411e-06 1.6559794062868870e-05 -3.3390479102241275e-05 0.0000000000000000 3.1946491223355202e-09 -6.1469283125577819e-09 5.8804475972212097e-07 0.00012031803993944399 3.3698077282707873e-12 3.7334278006515175e-11 1.2795121026199458e-11 0.0000000000000000 -53.009977022357148 -84.940192361847963 77.707205907375524 356.07450292316213 0.0000000000000000 0.0000000000000000 0.0000000000000000 0.0000000000000000 3.0330895802938751 3.0664161371144179 1.0333269556475779 1.0165748050068504 231.34969606111164 231.34365572497975 1.0165254160715380 
-40.456095964777198 -85.655423936125786 65.875741439406866 -40.456095964777198 -85.655423936125786 65.875741439406909 -85.434244129173635 -3.5866342889778854e-07 5.0385080718626432e-06 -1.7387254751358017e-05 0.0000000000000000 2.1469280580053952e-09 -4.6289293345210547e-09 5.9965683821621530e-07 0.00012098673443753281 4.6311149448260282e-12 2.2330040558988933e-12 -6.9938658937627605e-12 0.0000000000000000 -40.313282635619565 -85.652866469445740 67.489144002613742 334.72004880612383 0.0000000000000000 0.0000000000000000 0.0000000000000000 0.0000000000000000 3.0317462894265499 3.0637354414075495 1.0319896736948353 1.0162245938699166 271.67024395049492 271.66938445691648 1.0158684943443637 
-43.075249195677145 -94.078320778234058 81.834359622770123 -43.075249195677117 -94.078320778234058 81.834359622770094 -56.566182015832993 1.7206430396518471e-05 4.7760837288660304e-06 -1.5079235499422027e-05 0.0000000000000000 -1.4237732588013067e-10 -1.2739235404478059e-08 5.6134206963532697e-07 0.00011485341640517472 1.4962502136944900e-11 3.6075635435765621e-12 3.6563603833998610e-11 0.0000000000000000 -42.930125987095458 -94.071309017270835 83.274511392489799 283.94561953274422 0.0000000000000000 0.0000000000000000 0.0000000000000000 0.0000000000000000 3.0338744004676688 3.0680122938138745 1.0341384384348515 1.0167144720779118 223.35249204202307 223.38178918406641 1.0169255063615248 
-45.103603034369023 -99.007812709243609 66.426678201427322 -45.103603034369002 -99.007812709243652 66.426678201427364 -73.781237074548443 1.0892338348173547e-05 8.8710166522449299e-06 -2.5775176127332330e-05 0.0000000000000000 8.1163847517884424e-10 8.6083279393633916e-11 5.7803034581027646e-07 0.00011989114857321316 -1.1362600073649063e-11 -8.5900257674496915e-12 -2.4996867002320143e-11 0.0000000000000000 -44.946335306532468 -98.969717126470769 68.015559797458934 339.42980011114588 0.0000000000000000 0.0000000000000000 0.0000000000000000 0.0000000000000000 3.0334408012434992 3.0671673833965190 1.0337273124183008 1.0166145695528030 253.37447117775926 253.36048040373231 1.0167231788185722 
-35.793816189544685 -100.86711505167679 73.842199224557092 -35.793816189544707 -100.86711505167676 73.842199224557120 -68.821718397963309 9.0332766822211216e-06 6.2724060105140286e-06 -1.3598842151943007e-05 0.0000000000000000 -1.6513101977004776e-09 -7.9711946948781720e-09 5.7039461517303552e-07 0.00011733815693464281 9.4563748510536455e-12 -9.5772553852245894e-12 7.7329936094524754e-12 0.0000000000000000 -35.672109309640206 -100.83293553867907 75.360366609178811 338.44965823895870 0.0000000000000000 0.0000000000000000 0.0000000000000000 0.0000000000000000 3.0310251558348678 3.0622806523904371 1.0312559889744863 1.0161229720012923 239.63817875980655 239.64521432343798 1.0155075528773809 
-49.144487013719690 -112.05819155303419 63.763127757334964 -49.144487013719683 -112.05819155303423 63.763127757334949 -66.758114520065718 1.6882058373574812e-05 7.9780174640205545e-06 -1.6176988256062500e-05 -59.792065079924789 8.7060716622011647e-10 1.4938086878579779e-10 5.8935666080728311e-07 0.00011406105049636365 -1.1168409307687719e-11 8.3359026563164323e-12 3.2544760117091691e-12 0.00011281515705159791 -48.975793059600008 -111.99207679200002 65.383142959360015 326.57209562220959 0.0000000000000000 0.0000000000000000 0.0000000000000000 0.0000000000000000 3.0338148257524296 3.0678856418305900 1.0340713482148709 1.0167976660428220 243.11996472998104 243.09507199690054 1.0168923034070312 
-25.340922540990988 -110.54473671234369 65.874318363294321 -25.340922540990970 -110.54473671234372 65.874318363294350 -79.338407218051856 3.1731304371269757e-06 4.1169292271960210e-06 -1.5457427268942094e-05 0.0000000000000000 5.2323912910767767e-10 1.4204148968133268e-10 5.8037917138875628e-07 0.00011611711431728533 -5.2200110192879811e-13 -4.9745885008179274e-12 1.8374233272601256e-12 0.0000000000000000 -25.239536857883341 -110.48187134057846 67.469656361758609 349.35568362690350 0.0000000000000000 0.0000000000000000 0.0000000000000000 0.0000000000000000 3.0326695193031834 3.0655914562576934 1.0329225001584350 1.0164480796100244 264.84673990349097 264.85048198853468 1.0163276587883443 
-44.230652071337872 -111.33315968131728 74.963303005575739 -44.230652071337865 -111.33315968131728 74.963303005575696 -57.502225284108384 9.1842054293706110e-06 -7.4830460960004994e-06 -8.9825971420552971e-06 0.0000000000000000 7.9889808310418253e-10 1.4586465368893187e-10 5.4172974417454611e-07 0.00011168525963237110 -5.6091866328743809e-12 -3.0580313391108684e-12 1.3701999346802440e-11 0.0000000000000000 -44.075852747763513 -111.26860156453857 76.452402029906395 268.59635586333832 0.0000000000000000 0.0000000000000000 0.0000000000000000 0.0000000000000000 3.0348424642485603 3.0699940559292727 1.0351523972856926 1.0166405351227155 231.63294813876314 231.60428326671015 1.0174245100539212 
-58.480351517034997 -106.64049794405483 104.18231455827093 -58.480351517034990 -106.64049794405489 104.18231455827086 -30.936350713332867 3.2362754610200087e-06 1.4364945362022446e-05 -9.1474467103359582e-07 0.0000000000000000 3.1038939939357720e-08 -2.3782493150159780e-08 4.4857623618761654e-07 9.9155376991505066e-05 -3.9144666449135065e-12 -9.3496627438765091e-12 3.5745939215783765e-12 0.0000000000000000 -58.254647241440821 -106.62760994408018 105.33920711112118 241.62621693813244 0.0000000000000000 0.0000000000000000 0.0000000000000000 0.0000000000000000 3.0397440826691446 3.0799001866371456 1.0401573876303087 1.0196485515707243 203.62742779482355 203.54280931780150 1.0198809655251508 
-64.614599451344162 -90.064679168413107 95.409752616641896 -64.614599451344176 -90.064679168413079 95.409752616641924 -47.492356577801679 -6.6192045989230627e-06 4.6670250743589053e-06 9.7973528984732420e-06 0.0000000000000000 2.7468643836054859e-08 -3.4152176772191872e-08 4.9776631534804787e-07 0.00010276205188004941 6.7028299253027945e-12 -3.1421349753748288e-12 -1.0070344878758008e-11 0.0000000000000000 -64.370648572599308 -90.090304358695661 96.688480747766732 239.98138923263960 0.0000000000000000 0.0000000000000000 0.0000000000000000 0.0000000000000000 3.0359533668227687 3.0722038737356798 1.0362510617051039 1.0172730214193351 215.27632614045942 215.28887494600656 1.0179629481465160 
-76.198968888074731 -99.708594139383337 100.10945595221736 -76.198968888074731 -99.708594139383379 100.10945595221742 -43.720164072928441 -1.1615581934773669e-05 1.3408926581256723e-05 -2.8905901256732434e-06 0.0000000000000000 3.7185149127490088e-08 -2.1715738173793965e-08 4.6855796617472663e-07 0.00010322458565141629 1.1118944092448880e-11 -1.0712711782027803e-11 4.7035002703190060e-12 0.0000000000000000 -75.913673002404863 -99.702254402691466 101.32606574872912 288.13617662859207 0.0000000000000000 0.0000000000000000 0.0000000000000000 0.0000000000000000 3.0370869222875272 3.0745101726586044 1.0374240928247671 1.0180261196449232 214.14763577847765 214.41618620006037 1.0185407645978726 
-55.377821902532098 -93.569136312124556 102.13750413993381 -55.377821902532098 -93.569136312124556 102.13750413993377 -44.285757268216194 -6.6124532257469427e-07 7.0185553816451272e-06 3.5340684307369307e-06 0.0000000000000000 2.5137559043503988e-08 -3.1647802693199611e-08 4.6463944946473275e-07 0.00010113058743843880 2.5114297759760152e-12 -2.0881348865777036e-12 9.8492954060621089e-13 0.0000000000000000 -55.164710769962618 -93.586508083202432 103.32606452766413 222.68531933077850 0.0000000000000000 0.0000000000000000 0.0000000000000000 0.0000000000000000 3.0362949209899011 3.0728782735571647 1.0365839343153143 1.0180199566271493 218.28081849580761 218.28833922343625 1.0181278299966687 
-45.922360714423974 -176.09941662785531 155.09671640940726 -45.922360714424009 -176.09941662785522 155.09671640940726 -38.686862303127533 -5.7801084812054501e-06 -7.3418379473646912e-06 1.3834750000916190e-05 0.0000000000000000 8.2358924888281660e-10 4.6006587428593093e-10 2.0097553310449714e-07 8.5788353834632857e-05 2.5664259119370746e-12 4.6575100852358177e-12 -3.8070360176608926e-12 0.0000000000000000 -45.762777822239421 -175.89580528354742 155.64915507299250 248.91339099022119 0.0000000000000000 0.0000000000000000 0.0000000000000000 0.0000000000000000 3.0364028354290027 3.0731065889415743 1.0367044474566283 1.0177518336463049 201.18430807331973 201.18589204019369 1.0181865931148222 
-51.611164318435613 -185.78722249054397 167.74916673113501 -51.611164318435613 -185.78722249054400 167.74916673113503 -42.608135813640430 3.4135523515705156e-07 -6.0871763229738099e-07 -3.1218579044241750e-07 -44.169241013140201 9.0660742455006559e-10 5.0706633336616846e-10 1.4717304885891735e-07 8.5855528618640801e-05 -2.8818752619590075e-13 8.5364104700441397e-13 9.2611383552345493e-13 8.6365740273317381e-05 -51.435495451599998 -185.56281141599996 168.15371392000000 294.81703600272857 0.0000000000000000 0.0000000000000000 0.0000000000000000 0.0000000000000000 3.0334759701702581 3.0672100320774938 1.0337346374125718 1.0168854170383110 202.21878469505700 202.21594864409477 1.0167275449750994 
-42.825263617199859 -171.37389376831931 165.84440627078325 -42.825263617199873 -171.37389376831928 165.84440627078322 -41.722378107907552 8.2666844726426915e-07 -8.9399241444324890e-07 3.9671427638144161e-06 0.0000000000000000 2.2915594660239767e-09 -4.4515638105824308e-09 1.5557236698921594e-07 8.6065028023709692e-05 -8.9258219343582906e-13 -9.3106852002002632e-13 8.6507465453300237e-14 0.0000000000000000 -42.672974891599750 -171.18173466392949 166.26923354793541 271.88244999766295 0.0000000000000000 0.0000000000000000 0.0000000000000000 0.0000000000000000 3.0338080801846372 3.0678835932739466 1.0340761297980239 1.0170391036932858 200.89972096497692 200.89937730720160 1.0168953748616154 
-59.580939563732301 -178.22555957271291 157.22303138744479 -59.580939563732279 -178.22555957271291 157.22303138744476 -44.320530211685771 -3.9179046237640921e-06 -1.2373551132574359e-06 -2.5869589742897947e-07 0.0000000000000000 1.0229113910076306e-09 4.7037124195625789e-10 1.9193370581760405e-07 8.7335755160312757e-05 2.5046273242887354e-12 5.2181673408252524e-13 7.4645220248671189e-13 0.0000000000000000 -59.382734921100123 -178.01738339707751 157.75061606229067 243.94852352315442 0.0000000000000000 0.0000000000000000 0.0000000000000000 0.0000000000000000 3.0336246068918693 3.0675023966721118 1.0338783241282696 1.0170079419793709 205.11108917096942 205.12723650432358 1.0167981934205388 
-30.780119172818566 -102.75714223822541 94.042753985898401 -30.780119172818562 -102.75714223822541 94.042753985898358 -39.159255946200112 5.1530794329398912e-06 9.1970252152708048e-06 -2.3302746104418578e-05 0.0000000000000000 -1.1340482379268023e-10 -6.1310728967964086e-09 4.8836999493194943e-07 0.00010553633129370826 -1.2300885293479197e-11 1.7981415789890915e-11 2.2010141591606784e-12 0.0000000000000000 -30.660097366607719 -102.72526557899965 95.328291536857705 204.58703120518373 0.0000000000000000 0.0000000000000000 0.0000000000000000 0.0000000000000000 3.0363405707421403 3.0729695929698351 1.0366295568472548 1.0179137280234223 204.50387128632846 204.50575567911426 1.0181498287960584 
-18.887358780148119 -110.96972896192354 92.064833334296139 -18.887358780148130 -110.96972896192349 92.064833334296097 -50.324090576331081 8.4802567046721914e-06 1.1641686734140060e-06 -1.9803157696706167e-05 0.0000000000000000 4.2906008954068925e-10 1.4410875270876033e-10 4.6900829087093138e-07 0.00010750132771844753 1.0051571792427227e-11 -6.5133860095806501e-13 -3.0517647137570150e-12 0.0000000000000000 -18.804221549666405 -110.90595113131390 93.354036648627854 267.24800799435923 0.0000000000000000 0.0000000000000000 0.0000000000000000 0.0000000000000000 3.0336725678398202 3.0675923900624595 1.0339203295291914 1.0169718416816840 219.43615255944135 219.43444594844885 1.0168190769517222 
-33.935198306569632 -104.75324157208914 83.592642669204338 -33.935198306569639 -104.75324157208919 83.592642669204409 -54.006617442902133 8.0105331569953385e-06 -4.3178065616277010e-07 -1.6702457387184124e-05 0.0000000000000000 -7.3641358140484253e-09 -5.9190965871113946e-09 5.3895943948660664e-07 0.00010824263366833808 -9.0573677966076577e-12 3.8584362425465238e-13 9.0397398622368052e-13 0.0000000000000000 -33.815892125380543 -104.71065599625929 85.007910193808286 270.69679205096202 0.0000000000000000 0.0000000000000000 0.0000000000000000 0.0000000000000000 3.0321713480553849 3.0645947157494509 1.0324239332410592 1.0165427107958258 217.88688454888899 217.90049251887834 1.0160819051862016 
-19.004652619285228 -100.42081043402871 94.133035406850482 -19.004652619285235 -100.42081043402870 94.133035406850482 -45.648442937417023 2.8262753620075116e-06 -1.6985484626199709e-07 -5.7912976069674716e-06 0.0000000000000000 4.3077129710522587e-10 9.2935048545683685e-11 4.6021359878523072e-07 0.00010309128679655183 4.8633116982956739e-12 5.6689834410961595e-12 2.8761690719079865e-12 0.0000000000000000 -18.921183722278450 -100.37968114352928 95.398064000337470 185.31956687594098 0.0000000000000000 0.0000000000000000 0.0000000000000000 0.0000000000000000 3.0342720614573881 3.0687914457948136 1.0345198742631374 1.0170313675351295 212.04612756237600 212.04415478080443 1.0171140658420907 
-31.238871607467459 -118.05045206461482 172.88140491152294 -31.238871607467448 -118.05045206461486 172.88140491152294 -51.574718780278275 8.7040783563225172e-06 8.5186422466590672e-06 5.1187876911562491e-06 0.0000000000000000 1.7924374851930358e-09 -6.5098835693688552e-09 1.1404596076176422e-07 9.3045891771672377e-05 -3.0860401011425659e-12 -2.9038189248680968e-12 -2.6510571015131845e-12 0.0000000000000000 -31.124431206993112 -117.97934695114738 173.21200361760444 258.17126679857051 0.0000000000000000 0.0000000000000000 0.0000000000000000 0.0000000000000000 3.0340200343721899 3.0682969157888489 1.0342773922341530 1.0171208655586508 219.28357777764273 219.28412408166216 1.0169943688362979 
-30.759218715846156 -133.24129956082467 164.37098451597672 -30.759218715846149 -133.24129956082467 164.37098451597657 -44.095965979331027 8.0207210062766972e-06 7.0884464835759149e-09 7.8595442622432284e-07 0.0000000000000000 4.2728838399880778e-09 -4.6670812279113064e-09 1.5675639947707582e-07 8.8582278118419354e-05 -3.8836375301815062e-12 -1.3589238061971293e-12 1.0358126684368619e-14 0.0000000000000000 -30.642131568542830 -133.13454878399213 164.80820313575899 262.24283076768535 0.0000000000000000 0.0000000000000000 0.0000000000000000 0.0000000000000000 3.0349740749081731 3.0702407437415489 1.0352673714472613 1.0175960262631307 210.29611671412957 210.29547651980835 1.0174807452438115 
-42.834053231675085 -120.16899625657830 163.27506265041353 -42.834053231675071 -120.16899625657832 163.27506265041350 -39.527001036549635 1.3255298511011041e-05 8.3192476846969553e-06 4.9224622027400355e-06 0.0000000000000000 1.2066058188725044e-08 -1.8351262668640057e-08 1.5014120636480134e-07 8.9308926463816627e-05 -6.6250441472563616e-12 -5.5633078198984868e-12 -9.9026969950647227e-12 0.0000000000000000 -42.676694985445003 -120.10595080876966 163.70375490782192 268.28772502602959 0.0000000000000000 0.0000000000000000 0.0000000000000000 0.0000000000000000 3.0385714261604453 3.0775187655549576 1.0389483848976520 1.0186791146287451 209.70402090181230 209.70467508187144 1.0192881957848952 
-23.844477581220836 -114.30490591697711 161.33322996877254 -23.844477581220843 -114.30490591697709 161.33322996877260 -51.121733198223815 4.2198600135386347e-06 3.1827418994365075e-06 5.1570843449123029e-06 0.0000000000000000 5.0140233284756697e-10 1.6027729143885949e-10 1.7445577782382315e-07 9.1241254695452963e-05 -2.4426436819286965e-12 -2.1676183006176610e-12 -9.5889686593295069e-13 0.0000000000000000 -23.747323328369049 -114.23396745764113 161.81277151251504 321.01516800445251 0.0000000000000000 0.0000000000000000 0.0000000000000000 0.0000000000000000 3.0334155983908189 3.0670838855578482 1.0336688028983907 1.0169570923052038 218.06638058627115 218.06633299524790 1.0166952876899240 
-6.5115908154028990 -105.03859644633437 108.23126168280395 -6.5115908154028981 -105.03859644633438 108.23126168280395 -31.012974859356518 3.4792037829933949e-07 5.9025252679246303e-08 -1.1204285687883786e-05 -26.416447651933098 2.4845868071277089e-10 1.1533141108799329e-10 4.0026320480279759e-07 8.9202157984913364e-05 -3.1482674695127517e-13 -1.3724066733544841e-13 1.0038667654678262e-11 8.6024399329164369e-05 -6.4634479885999987 -104.98755276399999 109.33149947120000 327.67017865987640 0.0000000000000000 0.0000000000000000 0.0000000000000000 0.0000000000000000 3.0337925570996012 3.0678533449557657 1.0340613986510883 1.0170509383300639 179.22880503215904 179.22884034445784 1.0168882219926780 
-11.870133371108997 -97.150989520869672 100.24408534642188 -11.870133371108995 -97.150989520869658 100.24408534642190 -42.048219672038854 -1.2420984740574325e-06 -1.9951353347751903e-07 -1.2327803931226364e-05 -40.079181442489642 3.2665764190809021e-10 7.7069350901126667e-11 4.3422736339948642e-07 9.8079403764330110e-05 1.0653743076908860e-12 -1.2134321878703163e-12 6.5879623481260448e-12 9.7430839036520743e-05 -11.806838433999999 -97.116880539599975 101.43768333439998 212.90238721710071 0.0000000000000000 0.0000000000000000 0.0000000000000000 0.0000000000000000 3.0335306836082792 3.0673163735442133 1.0337862572185306 1.0168794568824258 200.50489780186879 200.50488975798356 1.0167528601073748 
-15.924363541226180 -110.42270616369815 101.92345848276868 -15.924363541226176 -110.42270616369815 101.92345848276865 -37.381095661985810 5.4389091724411978e-06 -2.1991212459008091e-07 -2.3097189853475900e-05 0.0000000000000000 3.8582114933460860e-10 1.4145809523746780e-10 4.2708609404584758e-07 9.5276964854714883e-05 -6.0374716820666543e-12 9.8432125502506215e-13 1.5116364890954399e-11 0.0000000000000000 -15.849604639409371 -110.36010279166017 103.09742667861765 236.22178992679409 0.0000000000000000 0.0000000000000000 0.0000000000000000 0.0000000000000000 3.0335494935255691 3.0673641412172761 1.0338152449564542 1.0170610981593429 194.19024749560685 194.19051985330455 1.0167671269246485 
-23.846739302610320 -99.573522622661642 101.09823287603125 -23.846739302610327 -99.573522622661599 101.09823287603122 -37.860562716271851 6.0686387738547534e-06 1.0469604644464579e-05 -1.5036965877724215e-05 0.0000000000000000 5.0143511218236892e-10 8.8823809418769883e-11 4.3059523058275317e-07 9.6843201314832420e-05 -2.7104342615007664e-13 -8.1205209116132462e-12 1.2032371884748190e-11 0.0000000000000000 -23.749578654390465 -99.534212460059550 102.28184693721489 211.57004919854941 0.0000000000000000 0.0000000000000000 0.0000000000000000 0.0000000000000000 3.0346960721030318 3.0696830650375251 1.0349876328925138 1.0174206376061274 197.75329417027845 197.75378300475003 1.0173432841938421 
-54.304307882395506 -108.39119350552686 112.80015887729240 -54.304307882395506 -108.39119350552683 112.80015887729242 -21.512748742333187 5.0542273240807530e-06 1.7382304852560856e-05 -1.2046590609655374e-05 0.0000000000000000 3.8838822247362086e-08 -2.2833549146651737e-08 4.0566017296880710e-07 9.9461480020431392e-05 -1.5796790060205994e-12 4.4462655971151648e-13 -1.6995579972573832e-11 0.0000000000000000 -54.087034329299712 -108.37170302860723 113.84396407125838 191.01171882188567 0.0000000000000000 0.0000000000000000 0.0000000000000000 0.0000000000000000 3.0425615289104324 3.0855907108657603 1.0430307208749274 1.0207657291646963 192.40757488566294 192.42722102367031 1.0212888202086650 
-41.866831349613101 -107.77135923597527 109.89332948274466 -41.866831349613086 -107.77135923597521 109.89332948274473 -26.380541782342448 -3.7645838193151341e-06 1.1702920812921114e-05 1.2661071815835658e-06 0.0000000000000000 3.2774055883087818e-08 -2.5752682656987815e-08 4.1856754181136645e-07 9.0358136446047282e-05 1.0234158704022943e-11 -1.7896191149169253e-11 -6.9756980242328412e-12 0.0000000000000000 -41.690910404717421 -107.74885629568415 110.97670241767709 270.34727434602189 0.0000000000000000 0.0000000000000000 0.0000000000000000 0.0000000000000000 3.0398588640562001 3.0800910573856544 1.0402331584687721 1.0198008780771211 197.71359945739616 197.72557575211312 1.0199182546169039 