# For a description of the Tecplot format see the Tecplot User's guide.
#
Variables=x,y,z,s_u,s_v,s_w,s_p,mono_f_vel_u,mono_f_vel_v,mono_f_vel_w,const,u_nu,v_nu,w_nu,p_nu,x_nu,y_nu,z_nu,const,u_ref,v_ref,w_ref,vol_ref,x_ref,y_ref,z_ref,const,I1,I2,I3,J,p1,p2,p3
Zone f=fepoint, n=1339, e=6475, et=brick, c=black
-60.5338 -70.2538 173.187 -60.533847283349594 -70.253814400908112 173.18742294809775 -68.078993369852824 2.2023318218591449e-06 2.3904046996566189e-06 -1.5268288014717894e-06 -72.746588426247214 -1.6669556901494076e-08 6.5185568054459953e-10 -8.2760007202864455e-06 -0.0039949800676062491 1.6635478276958859e-11 -2.5784108652031296e-11 5.2585780849092145e-11 -0.0039934220689549363 -58.668039002000000 -70.473359259200009 176.35421013599998 215.13583165143561 0.0000000000000000 0.0000000000000000 0.0000000000000000 0.0000000000000000 3.3559886845349807 3.7394458842627740 1.3840587197049066 1.1754690292818049 1379.6293011943505 1379.6290235090485 1.1764629075872095 
-66.998706784729251 -76.316021848497400 181.79178565441737 -66.998706784729265 -76.316021848497400 181.79178565441731 -73.286597042169262 -2.1480209224302479e-05 -5.6407739657664392e-06 3.5901871650983654e-06 -75.081375204926857 -1.8186364025840615e-08 2.9294189296535938e-10 -5.8349437530580417e-06 -0.0040538665400326242 -6.5476456063679116e-11 -5.0736605161568454e-11 6.0075918336603272e-11 -0.0040601615576716186 -64.963123215600007 -76.414687385200040 184.02450960799996 253.42820447565578 0.0000000000000000 0.0000000000000000 0.0000000000000000 0.0000000000000000 3.3585770244809812 3.7452309072717322 1.3872812842484581 1.1754690292818046 1394.3375940438675 1394.3385633326031 1.1778383965231425 
-71.825945497743291 -71.387200901015504 174.17734836862738 -71.825945497743291 -71.387200901015504 174.17734836862743 -71.653580869388321 -6.2412071559604315e-06 2.1558476213644734e-07 -3.1741672936071992e-06 -78.542037653396349 -1.9318950938984617e-08 5.8475224662402070e-10 -7.9951589668780798e-06 -0.0039951269695997294 -1.3602523191258347e-11 -3.1775373392865875e-11 3.8969193411495311e-11 -0.0040026376892737950 -69.663592608799988 -71.584146237200002 177.23667228800005 218.29881668600640 0.0000000000000000 0.0000000000000000 0.0000000000000000 0.0000000000000000 3.3599144871033171 3.7479954283139540 1.3887102787395909 1.1754690292818049 1396.4528154859365 1396.4526586559243 1.1784478180770215 
-58.990277492279667 -87.858258909267462 167.93372635784897 -58.990277492279631 -87.858258909267491 167.93372635784905 -49.636592472559663 -5.9795778314848934e-06 1.6889789130175166e-05 2.8721433595245966e-05 0.0000000000000000 -1.6307397709969248e-08 -3.9039083077341274e-10 -9.7664740188463401e-06 -0.0039757486012687773 -4.8160576613537271e-11 1.3679470155324059e-11 8.4954754004680400e-11 0.0000000000000000 -57.165005282198301 -87.726774323660578 171.67083873969227 259.76550921814646 0.0000000000000000 0.0000000000000000 0.0000000000000000 0.0000000000000000 3.3451092198603063 3.7151107704691495 1.3704895255665199 1.1721187803999467 1312.8119133743901 1312.8132740815411 1.1706766705582077 
-91.579449311305751 -83.420927374621201 106.73192830485317 -91.579449311305765 -83.420927374621201 106.73192830485321 -3.3353955905205703 1.9574055007752496e-05 2.5049047718816393e-05 -1.6325637156258832e-05 0.0000000000000000 -2.3953591388181653e-08 -1.2768786028516385e-10 -2.7129419098770313e-05 -0.0039491094812265596 1.1985923684583293e-10 1.7194248474272743e-10 -5.2118886655449975e-11 0.0000000000000000 -88.898344731952406 -83.377922378373768 117.11292023788836 283.91631954144174 0.0000000000000000 0.0000000000000000 0.0000000000000000 0.0000000000000000 3.3519889463208865 3.7297374137394055 1.3782717329171537 1.1747357735070818 1236.2552535724290 1236.2553503460292 1.1740000133066892 
-100.51136051520534 -66.609488575768751 96.756228036217522 -100.51136051520531 -66.609488575768751 96.756228036217507 -49.905507448994079 1.0212433299821700e-05 2.3946302888847034e-05 -8.5112628763121044e-05 -61.505261223929431 -2.6049243484482790e-08 8.6760798545526551e-10 -2.9959524447065178e-05 -0.0042641547626962846 5.2868356888878465e-11 7.9732334800859308e-11 -3.8300416086990102e-10 -0.0042484928532876562 -97.595692787999965 -66.901700632800015 108.22015140479995 322.25788568967050 0.0000000000000000 0.0000000000000000 0.0000000000000000 0.0000000000000000 3.3557653574010500 3.7392560107790946 1.3841050961789028 1.1754690292818035 1344.1346451382833 1344.1335355032454 1.1764814993972765 
-82.094552173345321 -67.252050685514916 97.199692593743748 -82.094552173345349 -67.252050685514874 97.199692593743748 -55.074615689262750 -9.9033523393968501e-06 2.0930599155799835e-05 -3.2866976061269420e-05 0.0000000000000000 -2.1728208843274643e-08 8.2956308489201557e-10 -2.9833713597327002e-05 -0.0042173087184186331 -1.1971082666536404e-10 2.8444830477570969e-11 -3.3322323435263817e-10 0.0000000000000000 -79.662532843379708 -67.531450170133141 108.61547480962874 295.38956150422752 0.0000000000000000 0.0000000000000000 0.0000000000000000 0.0000000000000000 3.3502772709693560 3.7266249592057314 1.3768898667011629 1.1736363204603861 1336.3020805302885 1336.3031820418507 1.1734052306493536 
-97.309367265870961 -81.851208636833476 97.211845256387150 -97.309367265871003 -81.851208636833476 97.211845256387136 -31.528797645651174 -1.4590230559788349e-05 3.2501446752047018e-05 -6.0204147964866374e-05 0.0000000000000000 -2.5297976435911810e-08 -3.4753755429051125e-11 -2.9830265884100978e-05 -0.0042844739652754442 -2.2856185046780518e-10 -5.7907922220368185e-11 -5.6156120411665937e-10 0.0000000000000000 -94.477787882002133 -81.839503548705352 108.62630821647583 293.80807890400462 0.0000000000000000 0.0000000000000000 0.0000000000000000 0.0000000000000000 3.3524998312630077 3.7309918581929646 1.3790283815879290 1.1742192731138048 1282.4167604790962 1282.4170055569559 1.1743181608746267 
-48.875471487797824 -126.88219810163646 130.90007353044084 -48.875471487797789 -126.88219810163639 130.90007353044078 19.073397598683087 1.8678610222154338e-05 -3.3992415721883861e-06 -1.6101088315597052e-06 0.0000000000000000 -9.9020612327647615e-07 -1.6706909381012724e-08 -2.0617425201732879e-05 -0.0032723592398914447 9.6116604673447626e-11 -1.7113886651915081e-11 2.0375936216185372e-10 0.0000000000000000 -47.292355390977058 -125.96433165720771 138.67232254046354 244.31333887135355 0.0000000000000000 0.0000000000000000 0.0000000000000000 0.0000000000000000 3.3603207468569840 3.7490245252721759 1.3893372535901232 1.1792782457163389 1242.8211114362543 1242.8165508306481 1.1787014242916038 
-35.419936755896586 -141.64370537772817 131.50798996102196 -35.419936755896600 -141.64370537772814 131.50798996102188 20.842969351897974 9.9577817418533505e-06 1.1258052916310380e-05 2.3314102850277011e-06 0.0000000000000000 -3.3405452027499506e-07 -2.7515915908290584e-07 -2.0400198379043286e-05 -0.0033736327310824737 3.0608575169723282e-10 -1.8951527982249730e-10 1.0988668075050971e-12 0.0000000000000000 -34.196989160350306 -140.43319657724166 139.21506628885933 210.16870282748488 0.0000000000000000 0.0000000000000000 0.0000000000000000 0.0000000000000000 3.3594333736404187 3.7476418962205673 1.3888598986949492 1.1786512284421522 1235.6391503081625 1235.6382341615454 1.1784992088709183 
-32.066448738496490 -128.58469844382003 135.46704739827405 -32.066448738496518 -128.58469844382000 135.46704739827410 6.9813314484301578 9.2854923828671093e-06 -1.1504197183684284e-06 1.8972426743377950e-05 0.0000000000000000 -9.9904192141231379e-09 -2.8015296749117624e-09 -1.8977268180009332e-05 -0.0033879706823142872 1.1681713933456731e-10 -1.8477180925862686e-11 -2.8377224233971594e-11 0.0000000000000000 -30.948229910445860 -127.64113600963313 142.72864290474456 229.21992526850030 0.0000000000000000 0.0000000000000000 0.0000000000000000 0.0000000000000000 3.3534973780430057 3.7341355711415933 1.3812225817529957 1.1764193337177922 1243.4071321204267 1243.4079019271323 1.1752554682528773 
-50.021635938231903 -131.91255700715564 140.07975090131430 -50.021635938231910 -131.91255700715558 140.07975090131424 26.205680284557939 1.8361956679896976e-05 2.8334128179187503e-05 -1.5361369248107453e-05 0.0000000000000000 -8.5064745915982109e-07 1.4426724790465316e-07 -1.7935296188004312e-05 -0.0033015612524341679 9.3416577664123094e-11 3.3615688337213770e-10 -8.3135509892755687e-11 0.0000000000000000 -48.406431667502837 -130.90513559487593 146.85896726379221 225.63426853136377 0.0000000000000000 0.0000000000000000 0.0000000000000000 0.0000000000000000 3.3642371776239104 3.7576353461105714 1.3940573081348118 1.1805434862413562 1235.2980539304369 1235.3026479082471 1.1807014766742077 
-54.699688687870470 -84.894299757287541 62.364307287772412 -54.699688687870484 -84.894299757287570 62.364307287772377 -29.001093984916277 -5.1096684640853974e-07 0.00013568164100351187 -9.4878281491830288e-05 0.0000000000000000 1.8585795787474739e-07 -8.5436020720882326e-07 -4.2999255381121604e-05 -0.0063001525635089078 -1.2952271290405746e-10 -5.6826619866363994e-09 -1.5511259802874466e-09 0.0000000000000000 -53.009977022357148 -84.940192361847963 77.707205907375524 356.07450292316213 0.0000000000000000 0.0000000000000000 0.0000000000000000 0.0000000000000000 3.3639421353012300 3.7566895178681259 1.3933701077095602 1.1783820042816502 1277.8186465008655 1277.8196734143376 1.1803588953680262 
-41.651685046905428 -85.699504147451307 50.961893229844037 -41.651685046905421 -85.699504147451279 50.961893229844016 -155.26203025390055 2.5615957543977484e-05 3.1520402360948314e-05 -0.00010801329524693858 0.0000000000000000 -4.8119350569617926e-08 -7.1165988928413278e-08 -4.3516507352653977e-05 -0.0060375177360384533 -7.9468914474410743e-10 -5.4380568362559993e-10 1.1187202275278105e-09 0.0000000000000000 -40.313282635619565 -85.652866469445740 67.489144002613742 334.72004880612383 0.0000000000000000 0.0000000000000000 0.0000000000000000 0.0000000000000000 3.3444180267243508 3.7148747054663427 1.3710098087147000 1.1727635380614476 1496.5754086057357 1496.5756040131894 1.1708783408903967 
-44.290043990015505 -94.292612250374901 68.668815700019351 -44.290043990015519 -94.292612250374930 68.668815700019366 -7.0448262324383339 0.00011694576485267436 5.6401209144136882e-06 -3.8206934416395767e-05 0.0000000000000000 -1.7823202659012382e-07 4.9899893554756981e-07 -4.1737972241678059e-05 -0.0055342523931531341 -3.2156860240181594e-09 -3.1435660249483379e-10 -4.8905636897908621e-09 0.0000000000000000 -42.930125987095458 -94.071309017270835 83.274511392489799 283.94561953274422 0.0000000000000000 0.0000000000000000 0.0000000000000000 0.0000000000000000 3.3682073190244775 3.7666383571125026 1.3991287555020195 1.1785509667395755 1259.0835083885913 1259.0835999345773 1.1828459396066398 
-46.442076069374139 -99.329945062023924 51.655656681496588 -46.442076069374160 -99.329945062023882 51.655656681496573 -64.414147296791157 0.00018418162403341633 3.3762096222706235e-05 -0.00018143165830253124 0.0000000000000000 -1.3363290751744472e-08 -1.0695606622590503e-09 -4.2754552840307263e-05 -0.0058512000236063998 1.2614972612115553e-09 1.3715823612823693e-09 2.9762591727614313e-09 0.0000000000000000 -44.946335306532468 -98.969717126470769 68.015559797458934 339.42980011114588 0.0000000000000000 0.0000000000000000 0.0000000000000000 0.0000000000000000 3.3614373482986548 3.7530505999397081 1.3923412690673584 1.1774911038650777 1319.4801725185819 1319.4779195786007 1.1799566638091181 
-36.830995025028969 -101.22111642589749 59.823694335946946 -36.830995025028976 -101.22111642589745 59.823694335946968 -87.519098375751895 9.1425792247247988e-05 2.4434236959870928e-05 -6.3394393856156656e-05 0.0000000000000000 7.3744224585414494e-08 5.2028077308589078e-07 -4.1674905607113172e-05 -0.0056046690254229533 -1.3954005951273070e-09 1.2541894969745446e-09 -9.3711743300361863e-10 0.0000000000000000 -35.672109309640206 -100.83293553867907 75.360366609178811 338.44965823895870 0.0000000000000000 0.0000000000000000 0.0000000000000000 0.0000000000000000 3.3402863468073600 3.7056110549840762 1.3658472982875915 1.1728768755019088 1370.2270989506787 1370.2271895584990 1.1686875792748521 
-50.580206292326210 -112.61725121232513 48.702672987455792 -50.580206292326224 -112.61725121232509 48.702672987455792 -45.825263941713118 0.00018281599600871928 -1.8469404002901224e-05 -8.2810872967106996e-05 23.228198382436805 -1.4334194775589280e-08 -1.8562174020075874e-09 -4.3592314078466636e-05 -0.0049394790381318398 1.9920933575802969e-09 -1.0066298603653798e-09 -2.5735566038932132e-10 -0.0042705806427882484 -48.975793059600008 -111.99207679200002 65.383142959360015 326.57209562220959 0.0000000000000000 0.0000000000000000 0.0000000000000000 0.0000000000000000 3.3526959183248048 3.7315746378144490 1.3794137259217043 1.1760955387747818 1294.3803638196810 1294.3801987950480 1.1744691151213382 
-26.203795075883594 -111.07631986821491 51.043274964128507 -26.203795075883594 -111.07631986821484 51.043274964128550 -172.38396469674146 3.1774257118772201e-05 4.1312161177147250e-06 -7.7502721034058934e-05 0.0000000000000000 -8.6149027356263730e-09 -1.7649774974870529e-09 -4.2928285488130768e-05 -0.0053340481921460648 -4.3279644020798538e-11 4.1268981229597238e-10 -2.1625591679633079e-10 0.0000000000000000 -25.239536857883341 -110.48187134057846 67.469656361758609 349.35568362690350 0.0000000000000000 0.0000000000000000 0.0000000000000000 0.0000000000000000 3.3472646562957205 3.7208515255809411 1.3741530838119898 1.1732285584699211 1540.4269609571340 1540.4270912171698 1.1722414410723132 
-45.548117029289351 -111.87905651594572 61.119909143733921 -45.548117029289344 -111.87905651594568 61.119909143733885 -28.763345589739028 8.2704426134561475e-05 -8.9548486221671612e-05 -3.7135789093236468e-05 0.0000000000000000 -1.3153540312504930e-08 -1.8125123624201933e-09 -4.0069545192977785e-05 -0.0048052979752417208 7.5115217710106327e-10 4.8766356157887233e-11 -1.4967047354846767e-09 0.0000000000000000 -44.075852747763513 -111.26860156453857 76.452402029906395 268.59635586333832 0.0000000000000000 0.0000000000000000 0.0000000000000000 0.0000000000000000 3.3620915411692351 3.7542484567426451 1.3928612175738997 1.1780730249194824 1316.2082548827843 1316.2091978307840 1.1802027163332547 
-60.126115344902473 -107.09649775542319 93.489755734549561 -60.126115344902473 -107.09649775542314 93.489755734549519 25.266103722353051 1.2688615622551701e-05 1.8035814352046466e-06 7.0842725319086373e-06 0.0000000000000000 -1.1470147248707317e-06 1.1752228988661008e-06 -3.3142541217198128e-05 -0.0033990522630022190 1.5844363166260991e-10 8.3972157771536983e-10 -2.5191779190340548e-10 0.0000000000000000 -58.254647241440821 -106.62760994408018 105.33920711112118 241.62621693813244 0.0000000000000000 0.0000000000000000 0.0000000000000000 0.0000000000000000 3.3651799263554762 3.7607190885044339 1.3962657660064368 1.1812306460927646 1237.7453190211461 1237.7441977317656 1.1816345727168323 
-66.480030451436932 -90.140241766422861 83.714873803124078 -66.480030451436946 -90.140241766422847 83.714873803124135 20.513267448399404 -1.2689018809183086e-05 -3.1831421588438165e-05 4.8180725270133843e-05 0.0000000000000000 -1.2394452550980456e-06 1.9173184380202085e-06 -3.6753212585602678e-05 -0.0042082337038246214 -9.0725601643188951e-10 4.8671129244785235e-10 6.6763614741531453e-10 0.0000000000000000 -64.370648572599308 -90.090304358695661 96.688480747766732 239.98138923263960 0.0000000000000000 0.0000000000000000 0.0000000000000000 0.0000000000000000 3.3695469225488353 3.7702546011785731 1.4014333349033157 1.1801305838266047 1240.4054000243750 1240.4031079113929 1.1838034981408148 
-78.332992299354672 -99.992634280253483 88.932343183330289 -78.332992299354672 -99.992634280253554 88.932343183330303 23.584081632999094 -1.0821265581228120e-05 2.3240134944435977e-05 -1.2409711429070017e-05 0.0000000000000000 -1.8036574532546841e-06 1.1063448727416691e-06 -3.4466222840688873e-05 -0.0040783963286485612 -7.4246084890747298e-10 9.4539025582661376e-10 -5.5094541215766110e-10 0.0000000000000000 -75.913673002404863 -99.702254402691466 101.32606574872912 288.13617662859207 0.0000000000000000 0.0000000000000000 0.0000000000000000 0.0000000000000000 3.3697602360348351 3.7712074516243357 1.4022254945577977 1.1815089964866767 1240.9149937481823 1240.9222097674817 1.1841695710786084 
-56.974817326512692 -93.758603446788783 91.203858983769535 -56.974817326512714 -93.758603446788754 91.203858983769550 16.646499306336754 3.6573172151895643e-06 1.9097982323802037e-05 2.9382479166217664e-05 0.0000000000000000 -9.0918326975915592e-07 1.5392499366022914e-06 -3.4438311274875448e-05 -0.0038869530031599873 -2.0239631025400377e-10 7.0387323253024728e-11 9.8526501077271566e-11 0.0000000000000000 -55.164710769962618 -93.586508083202432 103.32606452766413 222.68531933077850 0.0000000000000000 0.0000000000000000 0.0000000000000000 0.0000000000000000 3.3659504197269574 3.7617972490718907 1.3965316577489446 1.1809348993556239 1264.0873810643598 1264.0878077624720 1.1817482870559282 
-47.280537633334696 -177.82113333674118 149.96097601903395 -47.280537633334696 -177.82113333674116 149.96097601903384 34.443079110795978 -1.9750569160009567e-05 -9.2108249893785007e-08 2.4201959551971589e-05 0.0000000000000000 -1.3560013167879250e-08 -5.7165090439070809e-09 -1.4865341803727006e-05 -0.0033349915118545694 -3.3777185667866178e-11 -2.0153946663575750e-10 2.5904938172464881e-10 0.0000000000000000 -45.762777822239421 -175.89580528354742 155.64915507299250 248.91339099022119 0.0000000000000000 0.0000000000000000 0.0000000000000000 0.0000000000000000 3.3638249988385533 3.7557828091013157 1.3925693777097334 1.1789824944148468 1210.8178723436547 1210.8114075767041 1.1800654918432263 
-53.106245633489166 -187.68481959160226 163.98829792412178 -53.106245633489159 -187.68481959160226 163.98829792412178 34.230846657508287 8.0006365708223568e-06 -8.0911170825486557e-06 -9.1514390325374495e-06 26.763097957612384 -1.4926865132824929e-08 -6.3004619299533715e-09 -1.0885791745351980e-05 -0.0032904688403519295 4.3565768717276870e-11 -7.1495042314807822e-11 -1.0246898361903349e-10 -0.0033020985133795041 -51.435495451599998 -185.56281141599996 168.15371392000000 294.81703600272857 0.0000000000000000 0.0000000000000000 0.0000000000000000 0.0000000000000000 3.3533697924986350 3.7339165838161228 1.3811400484954286 1.1758518346352338 1187.3755243040935 1187.5556661092901 1.1752213493967254 
-44.107900265323927 -172.99967825606558 161.86605415028743 -44.107900265323913 -172.99967825606561 161.86605415028737 35.570588535514943 8.4636036581103659e-06 -6.9813662486703420e-06 -4.9702015685529237e-06 0.0000000000000000 -1.6193977417316681e-08 2.7575732363414340e-07 -1.1594635969481511e-05 -0.0033383761736910144 1.0626953001865093e-10 1.3543071286519053e-10 5.1168925394318204e-12 0.0000000000000000 -42.672974891599750 -171.18173466392949 166.26923354793541 271.88244999766295 0.0000000000000000 0.0000000000000000 0.0000000000000000 0.0000000000000000 3.3564231680667738 3.7403649223961106 1.3845449180729259 1.1768991956374513 1189.2763133910730 1189.2860580048584 1.1766674491899070 
-61.267818195638576 -179.98587602856486 152.31834584939179 -61.267818195638554 -179.98587602856483 152.31834584939179 29.099841154684693 4.8709293705721952e-06 -3.1934245386439306e-06 -3.0931260351419015e-06 0.0000000000000000 -1.6841760708263820e-08 -5.8446749662266492e-09 -1.4196556204382205e-05 -0.0033937924872837521 -7.3785672929645576e-11 -2.7676592782821067e-11 -6.9056564219935472e-11 0.0000000000000000 -59.382734921100123 -178.01738339707751 157.75061606229067 243.94852352315442 0.0000000000000000 0.0000000000000000 0.0000000000000000 0.0000000000000000 3.3560749713434470 3.7392183051605157 1.3837228370611638 1.1767515931741603 1196.5515408941571 1196.2015219230536 1.1763177882263671 
-31.739911771992805 -103.15930846963309 82.229861759979286 -31.739911771992791 -103.15930846963312 82.229861759979272 1.6594137416779304 1.4760367335196717e-05 4.6680784476703893e-05 -6.8666577911100467e-05 0.0000000000000000 6.3841766074229616e-07 -3.3628682426587440e-07 -3.6112361077849846e-05 -0.0046535423186605564 1.4983507438572636e-09 -3.1872732890412959e-09 -4.7599280490468957e-10 0.0000000000000000 -30.660097366607719 -102.72526557899965 95.328291536857705 204.58703120518373 0.0000000000000000 0.0000000000000000 0.0000000000000000 0.0000000000000000 3.3619670728519915 3.7505819784419994 1.3891684377632385 1.1774769633584239 1248.5768876693883 1248.5768554877206 1.1786243776935512 
-19.594922517067026 -111.50902777648834 80.079767897625146 -19.594922517067022 -111.50902777648841 80.079767897625104 -59.206335287538018 5.8961289855200063e-05 -4.7517485844203696e-06 -8.2294009985382470e-05 0.0000000000000000 -7.0643035310347102e-09 -1.7906072180551291e-09 -3.4690634826972655e-05 -0.0048808267482151587 -1.8219547738146928e-09 -4.5954041867846027e-11 7.9308076489245888e-10 0.0000000000000000 -18.804221549666405 -110.90595113131390 93.354036648627854 267.24800799435923 0.0000000000000000 0.0000000000000000 0.0000000000000000 0.0000000000000000 3.3495975520535142 3.7240092538897644 1.3749114637056179 1.1741417070840467 1346.3532527436153 1346.3532124524979 1.1725686225976124 
-34.924481645325947 -105.21425865839009 70.609306401314313 -34.924481645325947 -105.21425865839004 70.609306401314356 -42.928422027213244 7.5148212500557413e-05 -3.0511781211652655e-05 -5.6773894476467707e-05 0.0000000000000000 9.5688097990598626e-07 -4.2746145986094179e-08 -3.9274087057640431e-05 -0.0046964383048415355 1.2404651917230909e-09 -7.4081125874397892e-11 9.5617399316050790e-11 0.0000000000000000 -33.815892125380543 -104.71065599625929 85.007910193808286 270.69679205096202 0.0000000000000000 0.0000000000000000 0.0000000000000000 0.0000000000000000 3.3473560529924202 3.7210218658830700 1.3742351909218322 1.1741964368350073 1298.1717165469020 1298.1719624893951 1.1722568697309297 
-19.715039101254963 -100.76859550915880 82.372710015458978 -19.715039101254959 -100.76859550915880 82.372710015458992 -29.421993319059165 3.1634755694485086e-05 -2.0460805218609283e-05 -1.0060683061874856e-05 0.0000000000000000 -7.0924842110464681e-09 -1.1547238720766018e-09 -3.4040127335543957e-05 -0.0043892488511077634 -5.8667848205421024e-10 -8.3733300448743783e-10 -3.3251362813268388e-10 0.0000000000000000 -18.921183722278450 -100.37968114352928 95.398064000337470 185.31956687594098 0.0000000000000000 0.0000000000000000 0.0000000000000000 0.0000000000000000 3.3555947010618117 3.7374286025888068 1.3823794817773634 1.1753436774035826 1312.4952260754767 1312.4952030335471 1.1757528684832270 
-32.232298357275717 -118.70022758789678 169.68544245040047 -32.232298357275710 -118.70022758789675 169.68544245040044 8.8793506760515619 4.3041302854870119e-05 5.8420220569483678e-05 -1.7409654678488110e-05 0.0000000000000000 1.2958967598145670e-07 2.7665629589222358e-07 -8.6983860746587440e-06 -0.0039984778649510954 -1.6200540651435275e-12 -3.3135027932428676e-11 4.0578517799954650e-10 0.0000000000000000 -31.124431206993112 -117.97934695114738 173.21200361760444 258.17126679857051 0.0000000000000000 0.0000000000000000 0.0000000000000000 0.0000000000000000 3.3577212108918668 3.7425289565798896 1.3853843259131873 1.1776069009888954 1237.8980738186726 1237.8920152564021 1.1770205797648645 
-31.753385325334882 -134.17638858241659 160.23620401970064 -31.753385325334879 -134.17638858241659 160.23620401970066 20.333714765417344 1.0767689074955440e-05 1.0471183703911492e-05 -9.2981060617408394e-06 0.0000000000000000 -1.1605649703289388e-07 2.9944929430668964e-07 -1.1686320077610656e-05 -0.0035436414556043816 1.5641833592610786e-10 2.0119537578793636e-10 6.3518834128108889e-11 0.0000000000000000 -30.642131568542830 -133.13454878399213 164.80820313575899 262.24283076768535 0.0000000000000000 0.0000000000000000 0.0000000000000000 0.0000000000000000 3.3594125485136184 3.7467165515358980 1.3879150733833920 1.1780581773430772 1230.1902563342367 1230.1981502399169 1.1780978988783346 
-44.108992436027876 -120.85364064689823 159.02651022860334 -44.108992436027854 -120.85364064689826 159.02651022860343 33.148950759667088 4.1927423611336384e-05 -7.9500846039610204e-07 -1.5679048911366666e-05 0.0000000000000000 -1.9714265178862098e-07 6.7846762636146742e-07 -1.1213276587063104e-05 -0.0036798570966323895 1.9357595919927452e-10 3.3431960964380492e-10 1.0364021100285238e-09 0.0000000000000000 -42.676694985445003 -120.10595080876966 163.70375490782192 268.28772502602959 0.0000000000000000 0.0000000000000000 0.0000000000000000 0.0000000000000000 3.3670251608126316 3.7639765380355064 1.3976459332946130 1.1819190437012821 1228.9639937957661 1228.9642159121131 1.1822160187683819 
-24.671337290247237 -114.90475427590039 156.87517690804532 -24.671337290247255 -114.90475427590037 156.87517690804540 -11.706487944786710 1.7645527628862105e-05 1.6178418435312600e-05 8.3012249249556450e-06 0.0000000000000000 -8.2553512359417880e-09 -1.9916468474434623e-09 -1.2903783602524753e-05 -0.0037020329940082842 1.1307110136481404e-10 9.2121579601371758e-11 2.3957271593456419e-10 0.0000000000000000 -23.747323328369049 -114.23396745764113 161.81277151251504 321.01516800445251 0.0000000000000000 0.0000000000000000 0.0000000000000000 0.0000000000000000 3.3517321122641017 3.7296446648237489 1.3784586959897753 1.1751251488585657 1269.0132070676309 1269.0122735010050 1.1740809898320128 
-6.9213244358413331 -105.47021660510714 98.002912326860908 -6.9213244358413313 -105.47021660510717 98.002912326860937 18.849965790603445 3.2407981925101300e-06 -4.7840571491303499e-06 -4.1107519235957817e-05 43.079510168853965 -4.0907717768767773e-09 -1.4330772124537816e-09 -2.9605840225599422e-05 -0.0032764611318666895 5.0383325274042544e-11 -2.3814302898982951e-11 -9.0303539102308640e-10 -0.0031194521592470773 -6.4634479885999987 -104.98755276399999 109.33149947120000 327.67017865987640 0.0000000000000000 0.0000000000000000 0.0000000000000000 0.0000000000000000 3.3543269150440640 3.7358307366500365 1.3820907637666902 1.1757015588163424 1190.4542697685515 1190.4542611309384 1.1756235108225197 
-12.408823461810760 -97.439411578956353 89.147813849158922 -12.408823461810758 -97.439411578956339 89.147813849158908 -17.752433500719292 6.6654179525896176e-06 -1.7483382569956937e-05 -5.9428421236399387e-05 -14.344171262772715 -5.3782718278938546e-09 -9.5762331397963862e-10 -3.2118030937056126e-05 -0.0039433935450138759 -7.1660707530915823e-11 4.7303957606127034e-11 -5.2400504641216211e-10 -0.0039309885608123703 -11.806838433999999 -97.116880539599975 101.43768333439998 212.90238721710071 0.0000000000000000 0.0000000000000000 0.0000000000000000 0.0000000000000000 3.3543537324188426 3.7357597428013287 1.3819881362638748 1.1754690292818040 1281.3148256395582 1281.3148284753402 1.1755797503135506 
-16.560621059439868 -110.95207387666547 91.009675147427714 -16.560621059439878 -110.95207387666549 91.009675147427728 -12.578637454781223 1.1735340936952825e-05 -1.0743955075164688e-05 -0.00011576952101709227 0.0000000000000000 -6.3523812321442108e-09 -1.7576216038150962e-09 -3.1589821038124910e-05 -0.0037786615442303136 4.3931115276668331e-10 -2.3377892720101440e-10 -1.1498204910132232e-09 0.0000000000000000 -15.849604639409371 -110.36010279166017 103.09742667861765 236.22178992679409 0.0000000000000000 0.0000000000000000 0.0000000000000000 0.0000000000000000 3.3510228038280014 3.7286564750114199 1.3782057047196234 1.1750107351303323 1263.4782268766755 1263.4782331977005 1.1739699636801175 
-24.673653441288831 -99.905925338291723 90.094776852182193 -24.673653441288824 -99.905925338291738 90.094776852182179 3.6328566798547830 2.7221481572601511e-05 2.9733378117739815e-05 -6.3240391314076639e-05 0.0000000000000000 -8.2558934688670149e-09 -1.1036522806762150e-09 -3.1849377609916019e-05 -0.0037545147377729738 2.9436969302494129e-10 5.2922460445937005e-10 -9.0192366143642932e-10 0.0000000000000000 -23.749578654390465 -99.534212460059550 102.28184693721489 211.57004919854941 0.0000000000000000 0.0000000000000000 0.0000000000000000 0.0000000000000000 3.3540669438410489 3.7352652106675248 1.3817873600084420 1.1760976055911769 1238.4676795957573 1238.4676853102362 1.1754949066231293 
-55.855290167597232 -108.90482137595004 103.03382254161475 -55.855290167597239 -108.90482137595004 103.03382254161471 17.425766481578783 2.6697845911606045e-07 -2.7556345227464862e-05 1.3172548841411402e-05 0.0000000000000000 -1.3824607183353540e-06 7.6270195533901966e-07 -2.9970398888187722e-05 -0.0030413160971837394 4.7680850425742269e-10 4.8729066493781478e-10 2.8854746313244639e-10 0.0000000000000000 -54.087034329299712 -108.37170302860723 113.84396407125838 191.01171882188567 0.0000000000000000 0.0000000000000000 0.0000000000000000 0.0000000000000000 3.3594514017047374 3.7476215930990704 1.3888297082680159 1.1790505115076464 1239.8880413675552 1239.8882780510537 1.1784866622470558 
-43.124190080659595 -108.27147239139869 99.808875318139670 -43.124190080659602 -108.27147239139869 99.808875318139627 20.820321734849404 -2.0331649696389836e-06 -1.6881868062475427e-05 1.0232293712228571e-05 0.0000000000000000 -1.1714570376195544e-06 9.6151720584596428e-07 -3.1052150327097511e-05 -0.0028783015677136484 -5.3498415086505207e-10 1.2138524200316975e-09 5.6570240487009778e-10 0.0000000000000000 -41.690910404717421 -107.74885629568415 110.97670241767709 270.34727434602189 0.0000000000000000 0.0000000000000000 0.0000000000000000 0.0000000000000000 3.3622969471296971 3.7531909855051393 1.3915395829155104 1.1794959073761442 1239.5745279360092 1239.5746308219166 1.1796348235859149 