# For a description of the Tecplot format see the Tecplot User's guide.
#
Variables=x,y,z,s_u,s_v,s_w,s_p,mono_f_vel_u,mono_f_vel_v,mono_f_vel_w,const,u_nu,v_nu,w_nu,p_nu,x_nu,y_nu,z_nu,const,u_ref,v_ref,w_ref,vol_ref,x_ref,y_ref,z_ref,const,I1,I2,I3,J,p1,p2,p3
Zone f=fepoint, n=356, e=1130, et=brick, c=black
-67.8647 -97.8567 78.6019 -67.864681695158239 -97.856746444980203 78.601874654905671 -104.99344651714424 -2.2270051110870988e-15 1.2398652296952927e-15 3.9982553174092582e-15 1.0158529004889027e-29 7.4092161850281015e-08 3.9601697476854270e-09 0.00014029588375308322 0.0041437420561658131 3.3182560621844864e-20 -1.8905419549647996e-20 -4.4077990785838749e-21 -8.2365467658775523e-31 -65.754724465942431 -97.517594547729473 92.373562431030237 2074.8615187338191 0.0000000000000000 0.0000000000000000 0.0000000000000000 0.0000000000000000 3.3642364810074818 3.7569757858513388 1.3933684594032416 1.1804711986937197 2092.7628537435944 2101.8860145909111 1.1804102913592407 
-78.133498316395219 -131.58883553814283 63.423771643523800 -78.133498316395190 -131.58883553814283 63.423771643523786 -105.15528920700832 -4.7007383359371575e-15 -1.0531151064630188e-15 6.9137367710137829e-16 -82.216706820795679 8.3799364891667949e-08 1.2011057259897484e-08 0.00015750235772316046 0.0041412678029359076 6.6665032581484110e-20 2.7942994517138901e-21 -5.7618073377210927e-21 0.0037597448692852143 -75.747104543999981 -130.56019973999997 78.884476808000016 2128.8259272129790 0.0000000000000000 0.0000000000000000 0.0000000000000000 0.0000000000000000 3.3643131076070039 3.7571538630317236 1.3934710755883266 1.1804711986937197 2105.0251350993972 2101.8085739251501 1.1804537607299768 
-65.467705369387858 -122.64034685347384 54.822810891512290 -65.467705369387872 -122.64034685347384 54.822810891512290 -83.468998234893647 1.9449286959503893e-15 -8.3742767792459226e-16 1.1340436599791048e-15 -50.305587336115408 7.1826286585086052e-08 9.8752981347871582e-09 0.00016725273345841174 0.0040492770966369107 -2.3908670075004622e-20 -1.5981398008683029e-20 -2.8314933366363571e-21 0.0033196992156483219 -63.422274742800013 -121.79461816400000 71.240629883439979 1237.7701333319521 0.0000000000000000 0.0000000000000000 0.0000000000000000 0.0000000000000000 3.3644850829780077 3.7574850479575232 1.3936291847769586 1.1804711986937191 2034.6110059260025 2032.8460103710511 1.1805206840445142 
-57.996627330369819 -133.13988646712326 60.899849231964502 -57.996627330369840 -133.13988646712326 60.899849231964488 -71.472157114347681 3.7531897292706521e-15 1.6689140879178281e-16 -1.9439777854992307e-15 -86.909498842653093 6.4763803764300576e-08 1.2381254910209805e-08 0.00016036357201443249 0.0037700313866116733 -3.5175657552641277e-20 6.0529286569437760e-21 3.5354004185262819e-20 0.0045621413750465906 -56.152318124399997 -132.07954718800002 76.641416164000006 2090.5778096190215 0.0000000000000000 0.0000000000000000 0.0000000000000000 0.0000000000000000 3.3641048040915673 3.7567328239522699 1.3932585974079237 1.1804711986937200 2043.7094057804075 2035.5043324995395 1.1803638861817749 
-126.58867277969996 -110.99510324211715 75.039294110299949 -126.58867277969996 -110.99510324211715 75.039294110299934 -172.16985220666319 -2.3104580924490041e-16 6.8543813183975753e-16 -3.5216067376820323e-15 -184.48947345507506 1.2960447171028733e-07 7.0959200737519251e-09 0.00014433456035334302 0.0046326192410553312 -3.2628148386606677e-21 -1.3408213139264372e-20 1.4153018977679719e-20 0.0046749439597618386 -122.89786571200003 -110.38740333199999 89.207425400000020 2092.2379289329847 0.0000000000000000 0.0000000000000000 0.0000000000000000 0.0000000000000000 3.3644156515343724 3.7573535145929648 1.3935676240536563 1.1804711986937195 2241.0534540433587 2240.8218306163249 1.1804946632753432 
-126.45708017477888 -129.48984755171085 79.849037288397739 -126.45708017477888 -129.48984755171088 79.849037288397753 -155.90963917107575 -3.3298052064067890e-16 2.5084308329273213e-16 -3.3082251023278842e-15 -177.97444393866948 1.2948006544721832e-07 1.1510092212674296e-08 0.00013888205282697183 0.0044780573032693564 -1.0222331478479858e-21 -1.0496710510504591e-20 8.1935968909131979e-21 0.0042355933945593888 -122.76981557999994 -128.50411506799998 93.481940963999989 2295.0048277193882 0.0000000000000000 0.0000000000000000 0.0000000000000000 0.0000000000000000 3.3644476833038577 3.7574051538719995 1.3935867386954175 1.1804711986937197 2204.5868837438620 2209.5428896978638 1.1805026991687069 
-90.040885826351825 -120.35212806694688 96.198140731603473 -90.040885826351783 -120.35212806694696 96.198140731603431 -112.50583645040795 -1.1850496160445099e-15 2.0932906677028012e-15 -3.2714813355669261e-15 -2.7867728220082072e-29 9.5055528448462212e-08 9.3291718794574763e-09 0.00012034808830918564 0.0041132872400867753 2.1457765708370275e-20 -2.8828384723857357e-20 1.6182382524908145e-20 1.7379666791125942e-30 -87.333945182495114 -119.55317056945796 108.01171823852533 1853.2119812635015 0.0000000000000000 0.0000000000000000 0.0000000000000000 0.0000000000000000 3.3642083735283856 3.7569616964180024 1.3933842026443275 1.1804711986937197 2126.0538034034830 2123.5981868246895 1.1804170181879212 
-125.55992657181005 -119.73564799277601 95.102114255481666 -125.55992657181004 -119.73564799277599 95.102114255481652 -126.38404182941463 -1.5586512886457571e-16 1.2762635782442718e-15 -1.8098922102801362e-15 -120.88711185900362 1.2863198872725692e-07 9.1820340220039059e-09 0.00012159058555027967 0.0042449384627087899 -3.4749500507924580e-22 -1.9085234903874275e-20 1.1595211048333464e-20 0.0042609312699232009 -121.89681335200000 -118.94929134799999 107.03765745040002 1571.7251237143605 0.0000000000000000 0.0000000000000000 0.0000000000000000 0.0000000000000000 3.3643386448736554 3.7571571450838519 1.3934466613143490 1.1804711986937197 2143.0230270897641 2148.0289218724533 1.1804434057975133 
-45.688477563964703 -165.34289131088036 113.79440108951840 -45.688477563964710 -165.34289131088039 113.79440108951843 -35.867683396215426 3.8929329006354135e-15 -4.2375645741364885e-15 1.1826603882288370e-15 0.0000000000000000 5.3128802135482558e-08 2.0067179695715250e-08 0.00010040029934543782 0.0031429914272654087 -6.6351649491527010e-20 7.3787125201528235e-20 -1.4849532203824686e-20 0.0000000000000000 -44.175503749389662 -163.62432261291502 123.64986896362305 1288.7765825848380 0.0000000000000000 0.0000000000000000 0.0000000000000000 0.0000000000000000 3.3638545538930935 3.7561123976342179 1.3928823525683991 1.1807144703945203 1966.4258519300154 2008.3627237487558 1.1802046704093065 
-16.197299131533221 -145.17102419011988 127.76181193022609 -16.197299131533217 -145.17102419011988 127.76181193022605 -32.887332554199823 8.2003043702756654e-16 -2.9030900594672945e-15 6.5528680122734010e-16 -22.806587888426069 2.5250535773402305e-08 1.5252721530245594e-08 8.4566311997491539e-05 0.0031865645383899171 -1.2124720007879359e-20 4.6489611751640646e-20 -1.2415756523657445e-20 0.0032257866612343676 -15.478227839600008 -143.86476845600004 136.06298808800005 1207.7015194609139 0.0000000000000000 0.0000000000000000 0.0000000000000000 0.0000000000000000 3.3631450623197803 3.7546314095259827 1.3921102728648218 1.1804325648818290 1978.6230152457504 1973.2859842865071 1.1798774811343371 
-45.688477563964703 -165.34289131088036 131.39066144743330 -45.688477563964682 -165.34289131088030 131.39066144743325 -64.177425777584816 5.9688126121651435e-16 -2.2367531863880498e-15 1.0371233190565486e-15 0.0000000000000000 5.3128802135482558e-08 2.0067179695715254e-08 8.0452510388795404e-05 0.0035862749141503869 -7.8288279900280694e-21 4.3040506228886471e-20 -2.1049230683536689e-20 0.0000000000000000 -44.175503749389669 -163.62432261291511 139.28801968872074 2260.0113226803110 0.0000000000000000 0.0000000000000000 0.0000000000000000 0.0000000000000000 3.3641121538469636 3.7567093078364704 1.3932255484102143 1.1804830474117181 2042.3746127067275 2037.3132465131005 1.1803498261145506 
-6.3354640282466255 -163.13210962021947 121.41831637374887 -6.3354640282466237 -163.13210962021952 121.41831637374888 -96.608284063754780 2.5608819556150574e-15 -2.5292743357972266e-15 8.8762232621273598e-16 -108.53587844443973 1.5928055208114245e-08 1.9539534656942692e-08 9.1757539465220375e-05 0.0037690225046090871 -4.1161020373772623e-20 4.2727903268204915e-20 -1.1349013098715238e-20 0.0037933014836453506 -5.8818733370400009 -161.45872929999999 130.42539591680000 1840.5999298976626 0.0000000000000000 0.0000000000000000 0.0000000000000000 0.0000000000000000 3.3645207090439082 3.7575817806539362 1.3936916072489756 1.1804711986937220 2103.2132606048990 2094.9456700115143 1.1805471557204057 
-10.342117822032185 -107.64825999822916 180.56370945803104 -10.342117822032185 -107.64825999822916 180.56370945803107 -101.20488499500370 -6.6103908404908681e-16 6.5228629357924807e-16 1.0847399176073756e-15 -105.03633252954900 1.9715580945600660e-08 6.2971270420320016e-09 2.4708075802237772e-05 0.0041219157436215171 4.6283708159073773e-21 -1.0772742465037069e-20 -9.7416166612974341e-21 0.0041953078874260794 -9.7806680107999995 -107.10896956400003 182.98909712000000 1021.2952016557671 0.0000000000000000 0.0000000000000000 0.0000000000000000 0.0000000000000000 3.3643684510195873 3.7572517236360499 1.3935127741731679 1.1804711986937217 2106.6451101904900 2105.5482123684287 1.1804714163224974 
-18.342589226432683 -109.20841446349114 192.27135436199615 -18.342589226432686 -109.20841446349115 192.27135436199615 -112.29516042771399 -1.0145855259893438e-15 7.0439549789778212e-16 5.1593235691245517e-16 -118.80384149479724 2.7278496683713627e-08 6.6694816336365664e-09 1.1435844939455819e-05 0.0042245858336900895 1.0808593231877237e-20 -1.3111361840349726e-20 -8.5842349641222338e-21 0.0043568664376267977 -17.565766725200003 -108.63723447200002 193.39391677600000 1230.2822850381203 0.0000000000000000 0.0000000000000000 0.0000000000000000 0.0000000000000000 3.3643585592229188 3.7572298953956937 1.3935007538800406 1.1804711986937202 2131.2847475095887 2130.3000592322646 1.1804663229665981 
-45.688477563964703 -120.35212806694688 166.58318216326319 -45.688477563964653 -120.35212806694672 166.58318216326325 -107.10489760008430 5.6242870375081042e-17 1.6538317234258217e-15 1.7293761847109888e-15 0.0000000000000000 5.3128802135482545e-08 9.3291718794574763e-09 4.0556932461299766e-05 0.0041439737536258289 -5.6589226518152276e-22 -2.3561668323913612e-20 -1.0560900878115058e-20 0.0000000000000000 -44.175503749389591 -119.55317056945772 170.56432113891603 1872.3464537223574 0.0000000000000000 0.0000000000000000 0.0000000000000000 0.0000000000000000 3.3644195507707502 3.7573575927368714 1.3935676596915547 1.1804711986937204 2117.1498283513843 2120.6540134466891 1.1804946950469595 
-9.8808729887316069 -125.29714204722048 187.17493725303666 -9.8808729887316087 -125.29714204722049 187.17493725303666 -102.56194934964988 -4.3882657911790658e-16 -6.4208252374139384e-16 9.3191185064089274e-16 -101.85833882955892 1.9279561891405453e-08 1.0509405123926285e-08 1.7213336903409981e-05 0.0041448118708908846 -6.4715293189034024e-22 9.2685686917333481e-21 -8.9226598160486566e-21 0.0041804935564645936 -9.3318398883999993 -124.39710846400000 188.86462832000004 1016.3527334425750 0.0000000000000000 0.0000000000000000 0.0000000000000000 0.0000000000000000 3.3643544669753913 3.7572212988732185 1.3934962318271751 1.1804711986937222 2109.6367101876726 2109.0605994717448 1.1804644064006939 
-45.688477563964703 -165.34289131088036 96.198140731603473 -45.688477563964703 -165.34289131088039 96.198140731603431 -70.801217433389638 1.2960377878414518e-15 -6.4314016876525977e-15 -4.8207460215164187e-15 1.4593709573775098e-28 5.3128802135482545e-08 2.0067179695715254e-08 0.00012034808830918563 0.0034506373771864998 -2.1988303541784297e-20 1.0675117753189920e-19 3.0468171312634192e-20 -8.8330850303846393e-30 -44.175503749389662 -163.62432261291499 108.01171823852535 1450.3671205666894 0.0000000000000000 0.0000000000000000 0.0000000000000000 0.0000000000000000 3.3656770909749505 3.7602290646754053 1.3951942705867848 1.1809466195219065 2051.0590379824594 2082.6885672669309 1.1811832566913554 
-63.136324626653462 -162.61771190696314 71.433386553019929 -63.136324626653483 -162.61771190696311 71.433386553019929 -134.53237851382971 -2.1267794320409413e-15 -5.8930642090254653e-15 -1.5761793736388318e-15 -140.90143827914841 6.9622405285407751e-08 1.9416767527147272e-08 0.00014842235409417978 0.0040459585632601847 2.8832528765436797e-20 8.0656901114215668e-20 3.6529317505579355e-20 0.0045103430380873701 -61.153654769600031 -160.95484587600001 86.002782780800032 1645.6757988676138 0.0000000000000000 0.0000000000000000 0.0000000000000000 0.0000000000000000 3.3630581745467647 3.7546285940246102 1.3922022063108275 1.1801895762438404 2174.1215555434910 2173.3447988687540 1.1799161203857125 
-45.747254599983158 -169.81151793003809 68.365611950228612 -45.747254599983158 -169.81151793003806 68.365611950228626 -163.66511210812055 3.7063035840478782e-16 -6.3848201555630907e-15 -1.1184878822651742e-15 -128.51315420851367 5.3184365689240571e-08 2.1133713223875364e-08 0.00015190009988330644 0.0042452574252079310 9.9320702778354423e-22 8.7997575534077934e-20 2.6863540854503589e-20 0.0043528819448232772 -44.232698507600013 -168.00161050399998 83.276389748800028 1737.4139093181343 0.0000000000000000 0.0000000000000000 0.0000000000000000 0.0000000000000000 3.3643602093370060 3.7571870754554610 1.3934544606329904 1.1804711986937197 2213.4945125103122 2207.4856957905135 1.1804467686325804 
-45.688477563964703 -187.83827293284710 96.198140731603473 -45.688477563964675 -187.83827293284702 96.198140731603431 -173.17430496750629 -1.4636402166649604e-16 -3.1069791018080566e-15 -2.7069620755169750e-15 -1.0354456917479527e-29 5.3128802135482545e-08 2.5436169392989434e-08 0.00012034808830918564 0.0043291826358554065 7.4470577287171868e-21 5.1100345652415953e-20 4.4682747707913361e-21 5.9600984032642034e-31 -44.175503749389676 -185.65989863464350 108.01171823852533 1616.4576808433910 0.0000000000000000 0.0000000000000000 0.0000000000000000 0.0000000000000000 3.3639578525786211 3.7563665789542418 1.3930352893978204 1.1803891481865869 2236.1765982817437 2229.2323253520872 1.1802691107049859 
-90.040885826351825 -142.84750968891365 131.39066144743330 -90.040885826351783 -142.84750968891368 131.39066144743322 -101.45149012113185 -9.1279190871550433e-16 -6.7820831769029183e-16 5.8618969208325989e-16 0.0000000000000000 9.5055528448462212e-08 1.4698162020820861e-08 8.0452510388795417e-05 0.0039708409408079313 1.7621294005861033e-20 8.3265949110910168e-21 -8.4512269596916741e-21 0.0000000000000000 -87.333945182495100 -141.58874659118649 139.28801968872074 1877.7986991733408 0.0000000000000000 0.0000000000000000 0.0000000000000000 0.0000000000000000 3.3637477481064373 3.7558806900026829 1.3927586775185004 1.1801761715790902 2108.2034880624578 2108.0763526584251 1.1801517065849370 
-67.864681695158268 -165.34289131088036 131.39066144743330 -67.864681695158225 -165.34289131088028 131.39066144743330 -84.851491070956882 -2.1986360954048628e-15 -8.0124757384167618e-16 9.9551026293843906e-16 -8.7731437980852713e-31 7.4092161850281015e-08 2.0067179695715254e-08 8.0452510388795417e-05 0.0037772642540027023 3.6859656141963533e-20 1.8704575192549842e-20 -1.8058008353201317e-20 2.8766003353631376e-33 -65.754724465942374 -163.62432261291517 139.28801968872077 2018.1238718776010 0.0000000000000000 0.0000000000000000 0.0000000000000000 0.0000000000000000 3.3636433838287148 3.7556847231866066 1.3926670984001515 1.1803663990057656 2076.4784578351778 2078.1644360423129 1.1801132719309870 
-90.040885826351825 -165.34289131088036 113.79440108951840 -90.040885826351783 -165.34289131088036 113.79440108951846 -118.28135301528538 -1.5354846097050887e-15 -1.3289149660293639e-15 -9.4662271026464596e-16 0.0000000000000000 9.5055528448462225e-08 2.0067179695715257e-08 0.00010040029934543782 0.0040359928218997752 2.7756168750609938e-20 2.0899973963724869e-20 7.4400645478446692e-21 0.0000000000000000 -87.333945182495114 -163.62432261291505 123.64986896362312 1549.0027140339625 0.0000000000000000 0.0000000000000000 0.0000000000000000 0.0000000000000000 3.3647884087339679 3.7581317182939062 1.3939736128846076 1.1805235025346550 2139.7274787103611 2150.7881793013075 1.1806664285881678 
-90.040885826351825 -142.84750968891365 113.79440108951840 -90.040885826351783 -142.84750968891365 113.79440108951846 -81.340998704235972 -3.7036097749244219e-15 -1.8881112118843532e-15 6.3722563829061257e-16 0.0000000000000000 9.5055528448462212e-08 1.4698162020820860e-08 0.00010040029934543782 0.0037414729411519437 6.7531111833326741e-20 2.5566685289353424e-20 4.5534104414959120e-21 0.0000000000000000 -87.333945182495086 -141.58874659118649 123.64986896362313 1389.1126189879024 0.0000000000000000 0.0000000000000000 0.0000000000000000 0.0000000000000000 3.3636008747836716 3.7553905674078298 1.3924073764518006 1.1803889466423760 2062.1001102693281 2061.2941428418353 1.1800037556177427 
-46.738884702723404 -110.94029037103245 29.625331207566841 -46.738884702723411 -110.94029037103245 29.625331207566834 -221.61091136131128 1.2083219220303964e-15 1.7664166019703259e-15 -2.6667796809375036e-15 -223.88534637144764 5.4121760073577718e-08 7.0828363174513242e-09 0.00019581755330477790 0.0050554927237475046 7.6019113551171235e-21 -8.1660372278224352e-21 2.6700604166832905e-20 0.0048513185215691831 -45.197633928000002 -110.33371083599998 48.847122559999995 1069.0094105005942 0.0000000000000000 0.0000000000000000 0.0000000000000000 0.0000000000000000 3.3643745395314633 3.7572637549540100 1.3935186947620566 1.1804711986937193 2317.2469361561170 2317.2164644036193 1.1804739253269239 
-58.994813446592843 -99.197820992188824 26.676048995913245 -58.994813446592843 -99.197820992188838 26.676048995913227 -258.66159868929481 -1.2997536066824390e-15 2.0833597672305946e-15 -3.5326105181627898e-15 -261.59486597089023 6.5707399188319471e-08 4.2802426047927619e-09 0.00019916097161853941 0.0053848789594546686 3.1485895642664725e-20 -7.1221096796299337e-21 2.5338718271640622e-20 0.0057158497502446982 -57.123633070400032 -98.831257531200038 46.226036100800002 1475.5774262919704 0.0000000000000000 0.0000000000000000 0.0000000000000000 0.0000000000000000 3.3643695166081362 3.7572528160191370 1.3935127496416291 1.1804711986937197 2384.3876236085557 2384.3359013354352 1.1804714095824780 
-62.094258564281226 -106.09452592171310 39.092631897184219 -62.094258564281205 -106.09452592171307 39.092631897184219 -194.43276281729808 2.4392950577807919e-16 6.9616247294717113e-15 -7.1250489836635681e-15 -92.668108510769883 6.8637329930787416e-08 5.9262974527740653e-09 0.00018508506171599493 0.0049162762628608978 3.3231937682710961e-20 -3.7107275336096290e-20 8.5698620433454991e-20 0.0064110462664712688 -60.139641125599979 -105.58699381199996 57.260903223199996 1724.6135661994952 0.0000000000000000 0.0000000000000000 0.0000000000000000 0.0000000000000000 3.3643566111640975 3.7572257214000100 1.3934985334473498 1.1804711986937193 2260.0559065753259 2260.4536075924780 1.1804653940417194 
-20.233753501879011 -88.259030961619814 39.585670581361420 -20.233753501879015 -88.259030961619814 39.585670581361413 -204.42611392418260 -8.8988214833014316e-16 5.5040418848905168e-16 -5.1439413784036645e-15 -210.38321461011904 2.9066231754804051e-08 1.6694632343217108e-09 0.00018452613434050136 0.0049447465474563683 5.0166857110125805e-21 -3.1543846705677593e-20 2.1754566073655265e-21 0.0049476929538993649 -19.406020858399991 -88.116056368799974 57.699076624800000 1439.6451283969650 0.0000000000000000 0.0000000000000000 0.0000000000000000 0.0000000000000000 3.3643630952390740 3.7572390965987186 1.3935054270312348 1.1804711986937191 2293.3137634420382 2293.5493736775429 1.1804683124323376 
-60.693444421185148 -180.61914037679463 63.278287153418049 -60.693444421185163 -180.61914037679466 63.278287153418056 -222.27097184258133 -6.1336844165957296e-16 -1.1867355782293509e-15 -1.7077908296476150e-15 -236.93641083191994 6.7313130291957179e-08 2.3713174313044764e-08 0.00015766728446209297 0.0047182396911785275 1.1308036784940098e-20 2.9937035595940379e-21 2.9996505949286934e-20 0.0052550666877138009 -58.776536899199989 -178.58832514800000 78.755181813599989 1584.4809985467919 0.0000000000000000 0.0000000000000000 0.0000000000000000 0.0000000000000000 3.3648591042807898 3.7583224327150195 1.3940963945712912 1.1804711986937195 2325.2320009423061 2327.4975599694330 1.1807187825278735 
-76.814256473621725 -187.10622450432834 55.931300914198019 -76.814256473621739 -187.10622450432834 55.931300914198012 -234.84922086016579 -1.7002041095297523e-16 -1.1099089528089812e-15 -4.3417854041045676e-16 -236.76156122022562 8.2552279345726744e-08 2.5261466474191249e-08 0.00016599610707146437 0.0048674461327847347 4.7233745150506250e-22 4.3260658219350408e-21 8.8119433659389485e-21 0.0047212409407066582 -74.463376691600018 -184.94281327599995 72.225767276240006 1182.3928641350060 0.0000000000000000 0.0000000000000000 0.0000000000000000 0.0000000000000000 3.3643198602926883 3.7571004890570148 1.3934075660335663 1.1804711986937191 2346.9418442368951 2346.5378743027582 1.1804267832297166 
-71.956892858836753 -214.30787839368804 72.096683092226314 -71.956892858836767 -214.30787839368804 72.096683092226300 -227.74572795438345 1.9599112035043235e-16 2.2251513342869291e-16 -1.5881184691919033e-15 -228.00813351031414 7.7960561228884728e-08 3.1753718099380990e-08 0.00014767041595575844 0.0047716961603783917 -1.3464029152308948e-21 1.1928918848356711e-21 5.9100333365969846e-21 0.0047921855133706082 -69.736773305200003 -211.58846536000007 86.592267764799999 1391.6778601551057 0.0000000000000000 0.0000000000000000 0.0000000000000000 0.0000000000000000 3.3644561900089656 3.7574866259025579 1.3936626809233965 1.1804711986937197 2330.0001490299173 2329.6190731291822 1.1805350108729551 
-89.506396281729238 -209.90330006058178 76.277819937733682 -89.506396281729252 -209.90330006058181 76.277819937733710 -215.38371173818481 1.2141018508849951e-15 -5.8771491751934035e-16 -1.8308499286228285e-15 -235.94795956906287 9.4550273055382661e-08 3.0702464792753403e-08 0.00014293052043612417 0.0047188792152886684 -1.0986794761730083e-20 7.6748291170499451e-21 -7.4627147750928995e-21 0.0047825570358179118 -86.813844096400004 -207.27391660800001 90.308128229600001 1955.0875990986240 0.0000000000000000 0.0000000000000000 0.0000000000000000 0.0000000000000000 3.3647220185445454 3.7580235670981925 1.3939336748596920 1.1804711986937200 2319.8731632310091 2319.9226472827945 1.1806498267518672 
-76.722009396302667 -215.32555792326741 87.922605707584310 -76.722009396302667 -215.32555792326738 87.922605707584310 -204.12356444901584 -2.5845356605144460e-17 9.2109017320073263e-17 -6.1316447063961352e-16 -211.56418452784501 8.2465079320748202e-08 3.1996616245422167e-08 0.00012972954906942388 0.0046074594403548528 1.8209257257424602e-23 -7.5084198683567343e-22 5.8060462171083360e-21 0.0046738755535609055 -74.373612905599998 -212.58534351999998 100.65708370800000 988.41240310934302 0.0000000000000000 0.0000000000000000 0.0000000000000000 0.0000000000000000 3.3646973075886413 3.7580272187668009 1.3939646216642672 1.1804711986937200 2299.5361150810027 2300.0597521330355 1.1806630162118601 
-67.864681695158268 -187.83827293284710 96.198140731603473 -67.864681695158225 -187.83827293284702 96.198140731603431 -172.74818967306425 5.5231027737149549e-16 -2.5048477800157623e-15 -2.9227100631644892e-15 -6.8121873875952818e-29 7.4092161850281002e-08 2.5436169392989421e-08 0.00012034808830918561 0.0043927004518464390 -1.1423028486524798e-21 3.8815739228577290e-20 6.0365387559941994e-21 4.0739747255559235e-30 -65.754724465942374 -185.65989863464350 108.01171823852535 1808.0980320372519 0.0000000000000000 0.0000000000000000 0.0000000000000000 0.0000000000000000 3.3630992647368187 3.7543065084838387 1.3918189436881074 1.1801135857728080 2230.0126055144651 2227.8275694118770 1.1797533056658120 
-86.061163962997682 -211.01268573986059 97.338178411925782 -86.061163962997696 -211.01268573986061 97.338178411925796 -183.23062307742163 7.7134686574673235e-16 -6.3482648859254498e-16 -2.3553111226368301e-15 -178.11433060069177 9.1293456461194480e-08 3.0967247655055985e-08 0.00011905569829195882 0.0044855802812772318 -9.0297601737081951e-21 4.5849875943769244e-21 1.4158189769708767e-20 0.0044808694477021889 -83.461357431600007 -208.36062644399999 109.02489266960001 1287.0831768928649 0.0000000000000000 0.0000000000000000 0.0000000000000000 0.0000000000000000 3.3648275396561504 3.7582879859550786 1.3940949056207981 1.1804711986937189 2247.2351627048592 2250.3204976023449 1.1807180984451773 
-42.999425300512137 -131.06418436823253 48.649916494183337 -42.999425300512137 -131.06418436823247 48.649916494183337 -139.44607831013937 1.8312167329473768e-15 7.0819589409497440e-16 -3.0103603126470368e-15 -147.35878440867799 5.0586819733133837e-08 1.1885836093128432e-08 0.00017425056095987657 0.0043436392582153569 -9.6124755156069681e-21 5.2249615944547457e-21 4.1643445461628478e-20 0.0047315701947094535 -41.558840772800004 -130.04627243999997 65.754654395919971 2180.9238908936368 0.0000000000000000 0.0000000000000000 0.0000000000000000 0.0000000000000000 3.3644434165357917 3.7574127103961525 1.3935991095328133 1.1804711986937193 2185.9906325594757 2186.0468246579953 1.1805079459636461 
-23.709394764992552 -135.55481507587379 37.568069275354311 -23.709394764992549 -135.55481507587379 37.568069275354311 -185.05429080616994 1.0371044251739533e-15 4.7952082562087238e-16 -1.1884408687384831e-15 -186.75805044701630 3.2351786249940062e-08 1.2957621420284228e-08 0.00018681336380410585 0.0046773839663385736 -5.1787686438569459e-21 3.2368466975668348e-21 9.0096701957231264e-21 0.0046393191825524552 -22.788097858800000 -134.44511465599999 55.905993737599999 935.86986824075086 0.0000000000000000 0.0000000000000000 0.0000000000000000 0.0000000000000000 3.3643283035003857 3.7571627951375528 1.3934636930172337 1.1804711986937200 2251.7158114462322 2251.4611355347502 1.1804506592097006 
-11.621664609107309 -104.06855787892893 44.547373804771418 -11.621664609107311 -104.06855787892893 44.547373804771411 -179.72022606884931 -6.8158916251941185e-16 -6.4041902092779621e-16 -4.2772702482693663e-15 -172.50085330395544 2.0925147281580792e-08 5.4427451434690965e-09 0.00017890135914200298 0.0046562593241966143 9.1110230520572627e-22 -1.4407494889252344e-20 6.3023662782229761e-21 0.0046085469630778326 -11.025769398400001 -103.60243655599999 62.108642139439993 1284.9349949311236 0.0000000000000000 0.0000000000000000 0.0000000000000000 0.0000000000000000 3.3643495317921981 3.7572100390601966 1.3934898813674577 1.1804711986937191 2255.1213933622616 2255.5665943787822 1.1804617366986863 
-30.087243385697743 -142.00586836507208 53.507005657818958 -30.087243385697743 -142.00586836507208 53.507005657818965 -141.51142098633500 1.1598464235294889e-15 1.5006307222902119e-15 -3.3861408315099015e-15 -139.98225288702955 3.8380821298922292e-08 1.4497307132543827e-08 0.00016874438023961605 0.0042853944857380736 -7.9300930684705404e-21 3.2848480139640511e-21 3.8883611255746298e-20 0.0047693557121600985 -28.994254794799993 -140.76430841599998 70.071247290159988 2176.9829965296321 0.0000000000000000 0.0000000000000000 0.0000000000000000 0.0000000000000000 3.3644829724749954 3.7575028467142593 1.3936501105073629 1.1804711986937191 2177.8323378450500 2177.5802535708249 1.1805295083021534 
-106.55797331461555 -196.40745126323287 80.477441236463832 -106.55797331461555 -196.40745126323284 80.477441236463832 -194.58367897610006 -1.9994772820943249e-16 -1.2554926246261623e-16 -1.7488805255759596e-15 -208.99501960153478 1.1066926541847266e-07 2.7481393383155254e-08 0.00013816967025093163 0.0046232167938796108 2.0092546949930400e-21 -4.6921952392790256e-21 -6.7660348588981461e-22 0.0046063119877798060 -103.40639267600000 -194.05392295999994 94.040416199999996 2662.2783756828549 0.0000000000000000 0.0000000000000000 0.0000000000000000 0.0000000000000000 3.3646192441786558 3.7578432670116939 1.3938574182880326 1.1804711986937202 2274.8473990346906 2274.9088489603232 1.1806175453222478 
-85.081946831030336 -163.99234588547696 62.205634182986202 -85.081946831030322 -163.99234588547694 62.205634182986181 -200.69713100797034 -1.8335565383988604e-15 -2.1037175118782923e-15 -2.7890798158806914e-15 -200.01366673992649 9.0367800020807465e-08 1.9744830437318228e-08 0.00015888328460889056 0.0046883500388222596 1.3331156528176707e-20 1.6707770918345283e-20 5.2018517231418672e-20 0.0056400807416852085 -82.508500824799995 -162.30138233600007 77.801893530400037 2229.3857910936085 0.0000000000000000 0.0000000000000000 0.0000000000000000 0.0000000000000000 3.3648364766053480 3.7582782115383355 1.3940746041760375 1.1804711986937189 2284.7077655875014 2286.0598036717838 1.1807096043272622 
-29.056331672833711 -125.97597347243861 118.19346617899714 -29.056331672833718 -125.97597347243855 118.19346617899723 -8.4718576144165638 -8.9872542623194095e-16 2.1923939624946407e-16 3.2603900298530290e-15 -1.9459583142732626e-29 3.7406290176456025e-08 1.0671427519426402e-08 9.5413352106277216e-05 0.0028650990361800072 2.4033159084993888e-20 -8.6265190263063398e-21 -3.9000625211520549e-20 9.2766471349328563e-31 -27.991095225219734 -125.06206457489009 127.55940664489751 1124.7619503421174 0.0000000000000000 0.0000000000000000 0.0000000000000000 0.0000000000000000 3.3640124777210865 3.7564166876953213 1.3930286220736015 1.1806063835147182 1928.6012906453320 1929.8224550619129 1.1802662373616115 