# For a description of the Tecplot format see the Tecplot User's guide.
#
Variables=x,y,z,s_u,s_v,s_w,s_p,mono_f_vel_u,mono_f_vel_v,mono_f_vel_w,const,u_nu,v_nu,w_nu,p_nu,x_nu,y_nu,z_nu,const,u_ref,v_ref,w_ref,vol_ref,x_ref,y_ref,z_ref,const,I1,I2,I3,J,p1,p2,p3
Zone f=fepoint, n=356, e=1130, et=brick, c=black
-67.3263 -97.7706 82.3583 -67.326317599694377 -97.770637581821561 82.358346385725582 -604.04482207377498 -0.00016087462453610990 0.00015357875383232217 0.0010581098798966928 3.4462346469065888e-18 8.6454433084748317e-08 4.6343637816192987e-09 0.00015720386647544160 0.013857924771748102 4.3183656043760858e-09 -5.1653270967522882e-09 -1.4223556031298769e-08 -3.3875297271660306e-19 -65.754724465942431 -97.517594547729473 92.373562431030237 2074.8615187338191 0.0000000000000000 0.0000000000000000 0.0000000000000000 0.0000000000000000 3.2634592774320810 3.5422227014459664 1.2790178519974400 1.1308780311059299 2148.4082073143159 2298.8982456270460 1.1309359912531214 
-77.524600322205174 -131.32767037910824 67.640952778691798 -77.524600322205174 -131.32767037910824 67.640952778691812 -339.75707706567874 -0.00042564993065623779 -0.00013875963885414346 0.00016798188441729395 86.665576179388083 9.7781283431297452e-08 1.4055854480332640e-08 0.00017648400616465665 0.010888053873093788 1.5538167826800805e-08 6.1390225614587942e-09 -8.0582021232178001e-09 -0.0068077402973361571 -75.747104543999981 -130.56019973999997 78.884476808000016 2128.8259272129790 0.0000000000000000 0.0000000000000000 0.0000000000000000 0.0000000000000000 3.2632789853737538 3.5419457860717221 1.2789221933839803 1.1308780311059303 1680.1602204394503 1430.2696703547542 1.1308910443953641 
-64.945805496788807 -122.42562083666078 59.301061773137334 -64.945805496788807 -122.42562083666077 59.301061773137342 -109.59451461932147 0.00034145003879201531 3.0500424287392644e-05 1.8736014179046678e-05 329.41402796444066 8.3810487799818034e-08 1.1556511303467687e-08 0.00018740946400797043 0.0054663078920623356 -1.2733345241653077e-08 6.6919097833836038e-10 -1.8865771733099954e-09 -0.010454695868750695 -63.422274742800013 -121.79461816400000 71.240629883439979 1237.7701333319521 0.0000000000000000 0.0000000000000000 0.0000000000000000 0.0000000000000000 3.2639480813070665 3.5430333642590890 1.2793293932614347 1.1308780311059301 1128.9858654098955 1007.8944533991928 1.1310753725701270 
-57.526044399266162 -132.87067196286159 65.193640388159380 -57.526044399266169 -132.87067196286162 65.193640388159366 -225.52535134004827 0.00045015810546470086 -0.00014060834030378420 -0.00021757124023902362 -360.21562392474510 7.5569638019468144e-08 1.4489067945433476e-08 0.00017969004425921753 0.0071884444893358743 -1.5521186461950584e-08 6.2112305072594727e-09 8.9546929338383933e-09 0.025326048155632074 -56.152318124399997 -132.07954718800002 76.641416164000006 2090.5778096190215 0.0000000000000000 0.0000000000000000 0.0000000000000000 0.0000000000000000 3.2616767191919367 3.5387280439790696 1.2773103900891054 1.1308780311059297 1616.1320359939093 1708.1155132841036 1.1301789560973639 
-125.64694847314962 -110.84081146658535 78.903902830269075 -125.64694847314965 -110.84081146658534 78.903902830269075 -1131.6298769610160 -4.4103181563289727e-05 4.7297230404529133e-05 -0.00027254439562008015 -1299.1624538695135 1.5122895882790921e-07 8.3039495279990677e-09 0.00016172927063351497 0.029819746719128105 2.8107576870896757e-10 -2.7135377472615134e-09 8.8270136429316726e-09 0.034300815172719268 -122.89786571200003 -110.38740333199999 89.207425400000020 2092.2379289329847 0.0000000000000000 0.0000000000000000 0.0000000000000000 0.0000000000000000 3.2637866978708621 3.5428360298059820 1.2792993911027979 1.1308780311059288 3524.9014157496849 3491.4761450320721 1.1310622538138395 
-125.51625974447941 -129.23957531605788 83.567653198001366 -125.51625974447940 -129.23957531605788 83.567653198001366 -960.58140686312345 -4.5428562273252304e-05 -5.7457187193090058e-05 -0.00052538575920372404 -1383.4656725818229 1.5108381359874021e-07 1.3469597437421044e-08 0.00015561964546506601 0.025630326223527108 4.9637850945527549e-10 1.3141480828690205e-09 9.2574698959968204e-09 0.027080626838179963 -122.76981557999994 -128.50411506799998 93.481940963999989 2295.0048277193882 0.0000000000000000 0.0000000000000000 0.0000000000000000 0.0000000000000000 3.2637902643896619 3.5427419545049763 1.2791964202547135 1.1308780311059292 3274.4462435100772 3218.3908112403083 1.1310155543651599 
-89.350199005299032 -120.14927700705738 99.420503209319335 -89.350199005299103 -120.14927700705734 99.420503209319278 -452.09073507488381 5.4199047831657013e-06 0.00057135769428503938 -0.00049339445803995392 -9.3512593905421549e-20 1.1091553067665849e-07 1.0917403869825648e-08 0.00013485203056617934 0.013207034653832364 5.4835262919799929e-10 -1.6506648674308484e-08 7.4439211176068131e-09 -1.5098809506010683e-20 -87.333945182495114 -119.55317056945796 108.01171823852533 1853.2119812635015 0.0000000000000000 0.0000000000000000 0.0000000000000000 0.0000000000000000 3.2626835664061433 3.5407632137986362 1.2783453590494467 1.1308780311059294 2084.5543073722361 2102.4715259588697 1.1306408198159372 
-124.62526846222461 -119.53599622238109 98.357745034551471 -124.62526846222462 -119.53599622238109 98.357745034551485 -397.61483298950634 -5.3806415182419477e-05 0.00021537311807793381 -0.00061471458076768940 -252.16298666312838 1.5009422385525714e-07 1.0745208056661683e-08 0.00013624426934910616 0.012944997753454845 -5.8370009119354188e-11 -8.4320429468942415e-09 7.4661931480461200e-09 0.0090177124812375557 -121.89681335200000 -118.94929134799999 107.03765745040002 1571.7251237143605 0.0000000000000000 0.0000000000000000 0.0000000000000000 0.0000000000000000 3.2633288662139104 3.5418165382693840 1.2787292032561293 1.1308780311059292 1783.1743696933422 1788.3254313327052 1.1308087739376464 
-45.302436194089623 -164.90655585752916 116.48265448771561 -45.302436194089630 -164.90655585752924 116.48265448771559 -121.16236272341705 0.00011371328235581111 3.7801160103286049e-05 4.6438351610690885e-06 0.0000000000000000 6.1993342043153987e-08 2.3483486488729003e-08 0.00011250020192932200 0.0045540533287642100 -2.8499377435642522e-09 8.2786600376821893e-10 -3.4255417503534575e-09 0.0000000000000000 -44.175503749389662 -163.62432261291502 123.64986896362305 1288.7765825848380 0.0000000000000000 0.0000000000000000 0.0000000000000000 0.0000000000000000 3.2679486713368937 3.5526504297774295 1.2850061184718267 1.1338568010533201 1412.5053060840319 1394.1503685406051 1.1335841838090166 
-16.013825191732280 -144.83937280567733 130.02610473704493 -16.013825191732280 -144.83937280567736 130.02610473704496 -123.49707435453229 1.2266141045289977e-05 -9.3261646982489352e-05 -3.3016384457305527e-05 77.160277962523651 2.9463585321520821e-08 1.7849408395775868e-08 9.4757956272673027e-05 0.0045398125911612535 -4.5338183041653385e-10 6.1687919628255024e-10 -1.8576909002170979e-10 0.0045709874732076990 -15.478227839600008 -143.86476845600004 136.06298808800005 1207.7015194609139 0.0000000000000000 0.0000000000000000 0.0000000000000000 0.0000000000000000 3.2626311619089972 3.5403328869192006 1.2779425665669919 1.1315740735043689 1555.0467882348748 1577.9365949586424 1.1304602419455487 
-45.302436194089623 -164.90655585752916 133.54480576611186 -45.302436194089594 -164.90655585752930 133.54480576611184 -227.85227538264928 8.3901891305076886e-05 -9.4289138708904705e-05 9.9008478336981334e-06 0.0000000000000000 6.1993342043153987e-08 2.3483486488729000e-08 9.0148373292464612e-05 0.0075744281200606041 -2.6715166626790092e-09 3.5362963847674607e-09 -1.4823309027682847e-11 0.0000000000000000 -44.175503749389669 -163.62432261291511 139.28801968872074 2260.0113226803110 0.0000000000000000 0.0000000000000000 0.0000000000000000 0.0000000000000000 3.2622541125184519 3.5396109999798009 1.2776013916043658 1.1319174795394311 1790.5163481451805 1732.7045048043092 1.1303169686373993 
-6.2197285342749922 -162.70724725567365 123.87515683010716 -6.2197285342749922 -162.70724725567365 123.87515683010719 -568.40100893749536 0.00023269963661442679 -0.00019216790782556879 0.00017854912096510608 -779.37325210673976 1.8585649769198298e-08 2.2866008864141918e-08 0.00010281584601656846 0.016879867425829729 -7.1216774595656744e-09 1.0202031155126080e-08 -3.0085810444655185e-09 0.014490936352382631 -5.8818733370400009 -161.45872929999999 130.42539591680000 1840.5999298976626 0.0000000000000000 0.0000000000000000 0.0000000000000000 0.0000000000000000 3.2625840052368456 3.5402090730107294 1.2778689759633377 1.1308780311059301 2432.4615999147768 2448.6910378805474 1.1304282980003337 
-10.198861638642750 -107.51133702483511 181.22527689526709 -10.198861638642752 -107.51133702483513 181.22527689526711 -276.03974345701801 -1.9725722994598328e-05 6.0490803768041821e-05 4.3002217760305257e-05 -312.04947030437557 2.3005122778974038e-08 7.3691643898143874e-09 2.7685809062205635e-05 0.0092612730116962329 9.6560410653775155e-10 -2.5084005937326253e-09 -9.3338796910001082e-10 0.010683727149397675 -9.7806680107999995 -107.10896956400003 182.98909712000000 1021.2952016557671 0.0000000000000000 0.0000000000000000 0.0000000000000000 0.0000000000000000 3.2635133888144208 3.5422459631383623 1.2789814349396089 1.1308780311059288 1863.9285637877908 1857.7855025255269 1.1309206678446628 
-18.144379832696494 -109.06339490109163 192.57755314044920 -18.144379832696497 -109.06339490109164 192.57755314044923 -310.76596711760357 -0.00010401247759177248 0.00014802151190807962 -5.2050204829074316e-07 -380.31255242970673 3.1829910124292482e-08 7.8049249285783146e-09 1.2814054073828629e-05 0.010283485634575557 2.2655347597808904e-09 -4.0441783683936632e-09 4.0457135161911764e-10 0.011541290072199921 -17.565766725200003 -108.63723447200002 193.39391677600000 1230.2822850381203 0.0000000000000000 0.0000000000000000 0.0000000000000000 0.0000000000000000 3.2635018662340025 3.5422096354656345 1.2789561184734664 1.1308780311059290 1969.8606740357477 1964.7700955711621 1.1309091112196170 
-45.302436194089623 -120.14927700705738 167.66910832290444 -45.302436194089651 -120.14927700705736 167.66910832290466 -386.95454606364177 -6.1769174405945412e-05 9.8861103065261594e-05 0.00013086266427890858 0.0000000000000000 6.1993342043153987e-08 1.0917403869825648e-08 4.5444716011644459e-05 0.011251361785345526 1.3972993065748857e-09 -3.6099376087264702e-09 -3.9840528212304165e-09 0.0000000000000000 -44.175503749389591 -119.55317056945772 170.56432113891603 1872.3464537223574 0.0000000000000000 0.0000000000000000 0.0000000000000000 0.0000000000000000 3.2631103638806049 3.5414568817407726 1.2785976880828547 1.1308780311059301 2102.6382528953286 2106.5596981786362 1.1307528020180266 
-9.7407849791990007 -125.06862830666952 187.63583041515659 -9.7407849791990007 -125.06862830666954 187.63583041515656 -296.99982604354511 3.3128389515991454e-05 -0.00026702912357550921 -7.4412939756486217e-05 -290.77822953415938 2.2496354529222270e-08 1.2298556395506921e-08 1.9287829719161209e-05 0.0091168986428863692 2.2591013294520393e-10 5.5484419827971709e-09 4.9873486134473391e-10 0.0078225093194045792 -9.3318398883999993 -124.39710846400000 188.86462832000004 1016.3527334425750 0.0000000000000000 0.0000000000000000 0.0000000000000000 0.0000000000000000 3.2635050114465396 3.5422098397357611 1.2789529030140938 1.1308780311059283 1984.2101169771445 1989.7097171043299 1.1309074258115872 
-45.302436194089623 -164.90655585752916 99.420503209319335 -45.302436194089623 -164.90655585752927 99.420503209319293 -351.96981598324874 2.9796008617404765e-06 -0.00056352074760662079 -0.00013871627171467592 2.6047662541849460e-17 6.1993342043153987e-08 2.3483486488729000e-08 0.00013485203056617934 0.011063995345061176 -3.9066146152810694e-09 2.2463913200850849e-08 3.8544999286281608e-09 -2.5395628994663155e-18 -44.175503749389662 -163.62432261291499 108.01171823852535 1450.3671205666894 0.0000000000000000 0.0000000000000000 0.0000000000000000 0.0000000000000000 3.2681063707988987 3.5521029338889840 1.2842632160552734 1.1333710513258464 1308.0618986660893 1308.1575546178281 1.1332351868153419 
-62.630438417484726 -162.19551906454626 75.407447391056962 -62.630438417484719 -162.19551906454626 75.407447391056948 -1263.2280098950353 -0.00044045043714474933 -0.0013409824358187597 -0.00028627794688484363 -241.36805911173533 8.1238898635982437e-08 2.2722327353008609e-08 0.00016630971137487907 0.029621254441204756 1.1842042297881813e-08 3.8415506585126356e-08 1.3078868250813024e-08 0.027811634755769969 -61.153654769600031 -160.95484587600001 86.002782780800032 1645.6757988676138 0.0000000000000000 0.0000000000000000 0.0000000000000000 0.0000000000000000 3.2445775094913576 3.5030768072282048 1.2587270460371505 1.1267752552373782 3520.7625873494017 3522.5695490834096 1.1219390615162708 
-45.360809505544786 -169.35199205935336 72.432790657400304 -45.360809505544800 -169.35199205935336 72.432790657400318 -2335.3774165932646 0.00048402672975721340 -0.0024560610846226820 -0.00044599744872524994 -1036.7312385558434 6.2058169630896387e-08 2.4731570347213960e-08 0.00017020658325250793 0.045880010576360972 -9.2025348445516967e-09 6.2736189624652332e-08 1.9058172107838338e-08 0.048056703032401837 -44.232698507600013 -168.00161050399998 83.276389748800028 1737.4139093181343 0.0000000000000000 0.0000000000000000 0.0000000000000000 0.0000000000000000 3.2650652415753907 3.5454101035744476 1.2805940908959434 1.1308780311059297 5303.3809244479726 5301.7281663694148 1.1316389276776548 
-45.302436194089623 -187.28519528276502 99.420503209319335 -45.302436194089587 -187.28519528276502 99.420503209319236 -2377.5822121336500 0.00014155931528049532 -0.0010571827662077652 -0.0012293946074085490 6.1546616225834151e-20 6.1993342043153987e-08 2.9766513476303658e-08 0.00013485203056617934 0.049058326381694869 -1.2490268384932954e-09 3.0849901313781416e-08 7.5699868605984543e-09 -1.6599435646637833e-20 -44.175503749389676 -185.65989863464350 108.01171823852533 1616.4576808433910 0.0000000000000000 0.0000000000000000 0.0000000000000000 0.0000000000000000 3.2586986055752485 3.5321065083917467 1.2736431632919933 1.1299400332250122 5709.7458832054126 5771.1397127170349 1.1285556722408858 
-89.350199005299032 -142.52791643229327 133.54480576611186 -89.350199005299103 -142.52791643229324 133.54480576611189 -349.32697018969765 3.9910885181083958e-05 -9.2689025419163566e-05 4.3573608973720563e-05 0.0000000000000000 1.1091553067665850e-07 1.7200431079444911e-08 9.0148373292464626e-05 0.010461795608275525 1.8551998440296627e-11 2.6097705128864788e-09 -4.3469834873703329e-10 0.0000000000000000 -87.333945182495100 -141.58874659118649 139.28801968872074 1877.7986991733408 0.0000000000000000 0.0000000000000000 0.0000000000000000 0.0000000000000000 3.2662083103209807 3.5479927953393857 1.2820310321274844 1.1320312635572249 2078.6216864200755 2145.3215893648307 1.1322768070681053 
-67.326317599694335 -164.90655585752916 133.54480576611186 -67.326317599694406 -164.90655585752933 133.54480576611181 -285.87260610302917 -0.00011524467075304392 0.00014377312939502338 0.00015914647336621080 1.4249123121898487e-18 8.6454433084748330e-08 2.3483486488729000e-08 9.0148373292464612e-05 0.0073335134058365604 4.0586758162103513e-09 -1.8134765685648682e-09 -8.8802703914345010e-09 -1.4731872069124705e-19 -65.754724465942374 -163.62432261291517 139.28801968872077 2018.1238718776010 0.0000000000000000 0.0000000000000000 0.0000000000000000 0.0000000000000000 3.2609467021601946 3.5368431274961525 1.2761366468538351 1.1323443465596064 1874.2433508221434 1890.2937195240038 1.1296710758808495 
-89.350199005299032 -164.90655585752916 116.48265448771562 -89.350199005299103 -164.90655585752930 116.48265448771556 -449.88704702367471 -0.00023475668339658590 -7.7854961510357055e-05 0.00010242291172950959 0.0000000000000000 1.1091553067665850e-07 2.3483486488729000e-08 0.00011250020192932196 0.016080587838852838 7.2285460771028464e-09 4.9577756548442568e-09 1.0569662383933153e-08 0.0000000000000000 -87.333945182495114 -163.62432261291505 123.64986896362312 1549.0027140339625 0.0000000000000000 0.0000000000000000 0.0000000000000000 0.0000000000000000 3.2678438548874214 3.5510809131629739 1.2834911758114174 1.1321482048474525 2031.0325464237101 2203.5773611567342 1.1329020807311982 
-89.350199005299032 -142.52791643229327 116.48265448771562 -89.350199005299103 -142.52791643229321 116.48265448771556 -247.68454536934513 -0.00017002839985040289 -7.2515709915431270e-05 0.00026388777865856734 0.0000000000000000 1.1091553067665848e-07 1.7200431079444911e-08 0.00011250020192932196 0.0062708975551102261 8.1868286348757105e-09 5.9000738807135620e-10 -3.8127300817111483e-09 0.0000000000000000 -87.333945182495086 -141.58874659118649 123.64986896362313 1389.1126189879024 0.0000000000000000 0.0000000000000000 0.0000000000000000 0.0000000000000000 3.2637452130247477 3.5431538434564507 1.2796458358424758 1.1325512091304293 1708.8600132798167 2279.7508615798306 1.1312253253235012 
-46.345628352439270 -110.78628305277668 34.868415207504349 -46.345628352439277 -110.78628305277668 34.868415207504356 -1931.9530275597483 0.00045289389465040774 7.0448786328068943e-05 -0.00051305938598792799 -2032.2016290222671 6.3151970347563604e-08 8.2886455476938165e-09 0.00021941681878701047 0.048014515785520101 -7.0014842009364055e-09 2.7325951266969994e-09 1.3015898266950250e-08 0.050832742672267638 -45.197633928000002 -110.33371083599998 48.847122559999995 1069.0094105005942 0.0000000000000000 0.0000000000000000 0.0000000000000000 0.0000000000000000 3.2634453786692412 3.5421006965330313 1.2789040301333630 1.1308780311059297 5000.1520329236673 4995.7735458052039 1.1308863685651129 
-58.517374228048446 -99.104752478767210 32.008654199519377 -58.517374228048467 -99.104752478767239 32.008654199519363 -1795.7560240512394 0.00014652728126970688 8.9274486424410312e-05 -0.00036534137356742600 -1435.2913915741399 7.6670673282430712e-08 5.0089197234370886e-09 0.00022316317450332690 0.050801371134052600 -6.7481137916611862e-10 -1.1483603639280097e-09 9.1804365815469674e-09 0.052467391342370398 -57.123633070400032 -98.831257531200038 46.226036100800002 1475.5774262919704 0.0000000000000000 0.0000000000000000 0.0000000000000000 0.0000000000000000 3.2634275301027795 3.5420637287842007 1.2788849382498630 1.1308780311059297 4466.8804717033772 4475.6669086907314 1.1308779421287019 
-61.595530042781895 -105.96566621802819 44.048349652589920 -61.595530042781895 -105.96566621802820 44.048349652589913 -1146.8998888913404 0.00018291462712698449 0.00075939847853290069 -0.00087466339014250080 156.57268130815379 8.0089466530930409e-08 6.9352015241719292e-09 0.00020739088381915849 0.032355701692179807 5.1136513464667115e-10 -1.9060154176056588e-08 3.1815049086114561e-08 0.040399584365023104 -60.139641125599979 -105.58699381199996 57.260903223199996 1724.6135661994952 0.0000000000000000 0.0000000000000000 0.0000000000000000 0.0000000000000000 3.2633922888056137 3.5419962607260440 1.2788530696178895 1.1308780311059301 3407.5355353209907 3357.2718323371282 1.1308639056769147 
-20.022554180052872 -88.222730472817943 44.526422859306763 -20.022554180052875 -88.222730472817958 44.526422859306763 -1530.1226816778324 -3.3612870411707082e-05 -0.00020934357936978033 -0.00090981310228438114 -1607.5246510175527 3.3915927816208224e-08 1.9536787743135164e-09 0.00020676459641677525 0.040012134338208938 -1.2733056341862368e-09 1.1721646459669445e-09 1.2078186792079768e-08 0.043580858110914826 -19.406020858399991 -88.116056368799974 57.699076624800000 1439.6451283969650 0.0000000000000000 0.0000000000000000 0.0000000000000000 0.0000000000000000 3.2633832488202903 3.5419711673498351 1.2788366604074926 1.1308780311059294 4249.2037029533685 4253.3751142523251 1.1308566471487222 
-60.204337736996543 -180.10352718974090 67.499884260247867 -60.204337736996543 -180.10352718974084 67.499884260247867 -4076.1272401444294 0.00023374450608259448 -0.00072614750831902621 -0.00083212878583226874 -4775.4021829323756 7.8544318743434274e-08 2.7750172604257273e-08 0.00017666880930633511 0.072334943517744346 -6.0237887014276520e-09 5.8050749052462462e-09 2.4345903998249482e-08 0.11832194914157516 -58.776536899199989 -178.58832514800000 78.755181813599989 1584.4809985467919 0.0000000000000000 0.0000000000000000 0.0000000000000000 0.0000000000000000 3.2675898378522010 3.5508527707261384 1.2835238495258423 1.1308780311059303 8984.2770797612775 8980.7548823067191 1.1329376229184365 
-76.214420017286102 -186.55694589811645 60.375905181506738 -76.214420017286102 -186.55694589811648 60.375905181506717 -3409.1770266806384 0.0016157353217414498 -0.0010999553565109209 5.5412420645195207e-05 -3577.5325225625979 9.6326119886080974e-08 2.9562046810482911e-08 0.00018600139328839307 0.066986504285065612 -3.4130623176155780e-08 2.0975287450055098e-08 -2.0831923262657382e-09 0.063721588002030621 -74.463376691600018 -184.94281327599995 72.225767276240006 1182.3928641350060 0.0000000000000000 0.0000000000000000 0.0000000000000000 0.0000000000000000 3.2645278601027550 3.5442410730359266 1.2799591489571909 1.1308780311059305 7461.9394619399836 7469.4598326123241 1.1313521983788453 
-71.390420402065843 -213.61743388582036 76.050610521414129 -71.390420402065843 -213.61743388582042 76.050610521414129 -4120.6950287688733 0.00025221607626286835 0.00012545876940612727 -0.00066491956028602334 -4348.2512933115722 9.0968283489312172e-08 3.7159580967838224e-08 0.00016546715220400188 0.072767730048741402 -5.6221978646142557e-09 3.7598792738551555e-10 3.7814048388362655e-09 0.076164197077374082 -69.736773305200003 -211.58846536000007 86.592267764799999 1391.6778601551057 0.0000000000000000 0.0000000000000000 0.0000000000000000 0.0000000000000000 3.2625855955003020 3.5404386012116826 1.2781055115298507 1.1308780311059305 9309.9701058244082 9278.9849969735205 1.1305352073535797 
-88.819380733891364 -209.23571358459463 80.104834994265502 -88.819380733891393 -209.23571358459461 80.104834994265502 -2924.9013898132689 0.0013954742067672833 -0.00069844443459532077 -0.00064109372877672031 -3353.1004954763484 1.1032597205251626e-07 3.5929342834251088e-08 0.00016015602060903689 0.058657400378352084 -3.0019483924845600e-08 1.7369252827724655e-08 2.5597284352105079e-09 0.068322964209745790 -86.813844096400004 -207.27391660800001 90.308128229600001 1955.0875990986240 0.0000000000000000 0.0000000000000000 0.0000000000000000 0.0000000000000000 3.2664951235167758 3.5485506739611021 1.2823137830633553 1.1308780311059297 6842.8096292233085 6858.9349002964163 1.1324021746626891 
-76.122806561761010 -214.62983205828172 91.396160103599755 -76.122806561761010 -214.62983205828172 91.396160103599755 -3207.8670597338528 9.6909961297109463e-05 6.2808643359351971e-05 -0.00018835644508577340 -3671.9031979417186 9.6224362838848165e-08 3.7443820710691966e-08 0.00014536411308441191 0.059552633991503567 -2.7610354866762487e-09 -1.2479581044092831e-09 3.5639819948555352e-09 0.064460374638453680 -74.373612905599998 -212.58534351999998 100.65708370800000 988.41240310934302 0.0000000000000000 0.0000000000000000 0.0000000000000000 0.0000000000000000 3.2641994601395532 3.5438818229881752 1.2799411442569524 1.1308780311059292 8003.7789290154105 7906.5691418138986 1.1313528975152023 
-67.326317599694335 -187.28519528276502 99.420503209319335 -67.326317599694406 -187.28519528276502 99.420503209319236 -1909.5994282765123 0.00052247838507171729 -0.0012070742206590787 -0.00089117744478911802 -4.4469057364443441e-18 8.6454433084748303e-08 2.9766513476303658e-08 0.00013485203056617931 0.041537419809780173 -1.3551370148588163e-08 3.1779832011086765e-08 7.6201859339852129e-09 3.7242411113259937e-19 -65.754724465942374 -185.65989863464350 108.01171823852535 1808.0980320372519 0.0000000000000000 0.0000000000000000 0.0000000000000000 0.0000000000000000 3.2585941674593535 3.5312722856155561 1.2728886080138013 1.1295380116933835 4573.6142146162747 4595.2281905917725 1.1282019571640232 
-85.397812842758483 -210.33934198785133 100.52593669172299 -85.397812842758498 -210.33934198785136 100.52593669172300 -2005.1265204999631 0.0014568028812389671 -0.00095041962702295351 -0.0011508098955608636 -1772.7929059261164 1.0652575901937132e-07 3.6239212741762117e-08 0.00013340388610671994 0.043505968869643807 -3.3651586123668984e-08 1.8197536204252175e-08 1.2190661721645966e-08 0.039712000100622764 -83.461357431600007 -208.36062644399999 109.02489266960001 1287.0831768928649 0.0000000000000000 0.0000000000000000 0.0000000000000000 0.0000000000000000 3.2659477228961604 3.5475190413148856 1.2818327944715395 1.1308780311059290 4804.8057271503867 4845.7936784835174 1.1321832387551787 
-42.631854349090858 -130.80574194274044 53.315536673458048 -42.631854349090865 -130.80574194274047 53.315536673458048 -1035.6450530820466 0.00039831392096044876 -0.00013642133070914051 -0.00032766925468831655 -1327.1863911798150 5.9027225801644434e-08 1.3909314811044737e-08 0.00019525064588421512 0.026551616915142431 -9.7916680747973777e-09 6.0778653567437239e-09 1.0516060368438888e-08 0.037770193552370643 -41.558840772800004 -130.04627243999997 65.754654395919971 2180.9238908936368 0.0000000000000000 0.0000000000000000 0.0000000000000000 0.0000000000000000 3.2636978428354770 3.5426141378190867 1.2791645701578263 1.1308780311059292 3448.4079414053044 3660.5760585276735 1.1310010073760890 
-23.474322144235970 -135.27306804046989 42.570062928141120 -23.474322144235970 -135.27306804046989 42.570062928141120 -1813.6154264591992 0.00014457094668283399 2.8093966179898410e-05 -4.9449055764328492e-05 -1869.2500624178213 3.7749677744836070e-08 1.5163567956832935e-08 0.00020932747499813331 0.043018913198144902 -3.0034395093326648e-09 -8.3845618532387593e-10 1.0221144219308744e-09 0.039867534116519075 -22.788097858800000 -134.44511465599999 55.905993737599999 935.86986824075086 0.0000000000000000 0.0000000000000000 0.0000000000000000 0.0000000000000000 3.2632412374807052 3.5416731881874179 1.2786804168751631 1.1308780311059290 4651.9555596107903 5817.4041333405239 1.1307880615459271 
-11.469619543140283 -103.95021215379286 49.337520744559882 -11.469619543140283 -103.95021215379285 49.337520744559896 -1604.7918085786157 3.9790237124158759e-05 -0.00038992930208172580 -0.00071190066965608678 -1362.6648881627229 2.4416505761681861e-08 6.3693421648025614e-09 0.00020046194244827123 0.039251197602287860 -2.6381088304687890e-09 5.1122579261860807e-09 7.5218026492954905e-09 0.035743978816125170 -11.025769398400001 -103.60243655599999 62.108642139439993 1284.9349949311236 0.0000000000000000 0.0000000000000000 0.0000000000000000 0.0000000000000000 3.2633417787591892 3.5418895807904907 1.2787967482816422 1.1308780311059290 4416.8773172020110 4634.6173395797186 1.1308391483579610 
-29.808362939239714 -141.69064289641173 58.025195907690367 -29.808362939239714 -141.69064289641173 58.025195907690367 -1197.6261200260944 9.3987822715268992e-05 0.00021695724348159631 -0.00054322718998774924 -1291.6015987982885 4.4784655123253365e-08 1.6965352900299990e-08 0.00018908087898950043 0.029528898089631512 -1.1834037811655363e-09 3.0090337836957674e-10 1.2742115693020088e-08 0.045830840874778518 -28.994254794799993 -140.76430841599998 70.071247290159988 2176.9829965296321 0.0000000000000000 0.0000000000000000 0.0000000000000000 0.0000000000000000 3.2639367995843367 3.5431450578137249 1.2794581806823027 1.1308780311059292 3698.9864147627200 4026.9793978503940 1.1311296323172570 
-105.75383480588357 -195.80990294271368 84.176982851448017 -105.75383480588357 -195.80990294271371 84.176982851448003 -1486.2989539823379 4.5476008205443794e-05 -0.00020997020395099010 -0.00079291649723940174 -1876.8462540434543 1.2913443350748288e-07 3.2159919838292694e-08 0.00015482140895528573 0.039475044718856822 -2.2042256637129801e-09 4.1168989812094987e-09 1.1467335876674113e-08 0.041158128913303622 -103.40639267600000 -194.05392295999994 94.040416199999996 2662.2783756828549 0.0000000000000000 0.0000000000000000 0.0000000000000000 0.0000000000000000 3.2638142110718507 3.5430282383958316 1.2794696504757166 1.1308780311059292 3892.6173360780808 3850.0156512828207 1.1311398418786267 
-84.425321705086731 -163.56301923252738 66.459790122148974 -84.425321705086787 -163.56301923252747 66.459790122148945 -1774.3034347787334 -3.6475344531016108e-05 -0.00025061066814086903 -0.00022766017561798223 -1772.1117526835681 1.0544565656744888e-07 2.3106271340722628e-08 0.00017803135764893341 0.044648369389417422 3.0146343946849296e-09 7.9642361359351894e-09 1.1778909056991320e-08 0.052189069418159859 -82.508500824799995 -162.30138233600007 77.801893530400037 2229.3857910936085 0.0000000000000000 0.0000000000000000 0.0000000000000000 0.0000000000000000 3.2665442527083566 3.5486391696489350 1.2823518343999813 1.1308780311059297 4615.4408030231180 4559.1606648205443 1.1324174770348749 
-28.784532297645406 -125.74393686336640 120.74819230731468 -28.784532297645427 -125.74393686336636 120.74819230731465 -64.215105625175681 2.7691474194644508e-05 -5.6067316108790555e-05 3.1428535205473891e-05 -8.4017355025391423e-19 4.3647526953849436e-08 1.2488154288448072e-08 0.00010691224477099581 0.0023151179603004370 2.0092925354521957e-09 2.1964777279556515e-09 -1.5660041283894481e-09 6.9176255777205676e-20 -27.991095225219734 -125.06206457489009 127.55940664489751 1124.7619503421174 0.0000000000000000 0.0000000000000000 0.0000000000000000 0.0000000000000000 3.2597338720830460 3.5337787568612673 1.2742696187096336 1.1312035149668045 1301.8150027728966 1302.3855583006416 1.1288469316183702 