# For a description of the Tecplot format see the Tecplot User's guide.
#
Variables=x,y,z,s_u,s_v,s_w,s_p,mono_f_vel_u,mono_f_vel_v,mono_f_vel_w,const,u_nu,v_nu,w_nu,p_nu,x_nu,y_nu,z_nu,const,u_ref,v_ref,w_ref,vol_ref,x_ref,y_ref,z_ref,const,I1,I2,I3,J,p1,p2,p3
Zone f=fepoint, n=1339, e=6475, et=brick, c=black
-59.6119 -70.3619 174.822 -59.611930578087261 -70.361938865740981 174.82205768360953 -174.52687539649668 3.4574221527251746e-07 2.9202271677069099e-08 1.4465397875419239e-06 -176.80831141001133 4.8361679105823904e-09 -1.8983992156051957e-10 2.2760987476999617e-06 0.0010807056905401810 -2.7986879035906422e-13 8.4953147111386263e-13 -5.5535500514747866e-12 0.0010831200403854141 -58.668039002000000 -70.473359259200009 176.35421013599998 215.13583165143561 0.0000000000000000 0.0000000000000000 0.0000000000000000 0.0000000000000000 3.1714493848315399 3.3495581365563400 1.1781832393115155 1.0844482958195356 940.00104475504963 940.00520342616210 1.0854453405206532 
-65.992902214079393 -76.364614006092978 182.94427488491505 -65.992902214079407 -76.364614006092992 182.94427488491507 -183.85502031943693 -8.7721576535521258e-06 -9.1101210670475267e-06 9.6062704542390272e-06 -184.38279195811043 5.2762246793847112e-09 -8.5320750464745743e-11 1.6047495083881813e-06 0.0010916790670635074 2.1313000399749486e-11 6.1851456879554515e-12 -1.7967335099775072e-11 0.0011014703433516757 -64.963123215600007 -76.414687385200040 184.02450960799996 253.42820447565578 0.0000000000000000 0.0000000000000000 0.0000000000000000 0.0000000000000000 3.1739177285331626 3.3547731412192690 1.1809358335989810 1.0844482958195356 964.42072260218583 964.41751008076096 1.0867185787651370 
-70.757502790678501 -71.484195243046372 175.75651262850971 -70.757502790678487 -71.484195243046358 175.75651262850968 -177.53888269655388 -5.4449445181767496e-06 -1.3043163471702298e-06 4.1534923280056685e-09 -182.64819105660561 5.6048112817563833e-09 -1.7030699073217190e-10 2.1988605158895780e-06 0.0010840296106891479 1.1777346081539809e-11 5.2731917363566250e-12 -2.9965934377045792e-12 0.0010894965481132131 -69.663592608799988 -71.584146237200002 177.23667228800005 218.29881668600640 0.0000000000000000 0.0000000000000000 0.0000000000000000 0.0000000000000000 3.1751770100540138 3.3573515772592750 1.1822559038678422 1.0844482958195338 957.90614689118468 957.90121338625750 1.0873294110689680 
-58.088390112453084 -87.793503576060701 169.86275200668609 -58.088390112453055 -87.793503576060672 169.86275200668601 -160.59311314891679 -6.7996602371691829e-06 1.2000466265892655e-05 2.6412436919019367e-05 0.0000000000000000 4.7311020656692904e-09 1.1369427621588102e-10 2.6860146480345293e-06 0.0010701691242848118 1.3803914976376757e-11 -2.5670667831938815e-11 -1.3843150593824121e-11 0.0000000000000000 -57.165005282198301 -87.726774323660578 171.67083873969227 259.76550921814646 0.0000000000000000 0.0000000000000000 0.0000000000000000 0.0000000000000000 3.1600034300992483 3.3253628532445272 1.1654045843196479 1.0807769523273014 875.90395424235885 875.92525770575207 1.0795333056240934 
-90.254685601674609 -83.399747683871112 112.09039699754973 -90.254685601674581 -83.399747683871084 112.09039699754975 -137.64146005031947 2.4002829875175040e-06 2.0137777472720308e-05 -9.8651456732611222e-06 0.0000000000000000 6.9494096033295713e-09 3.7183256473838355e-11 7.4612410756458303e-06 0.0011193451791553367 -1.6170518490733182e-11 -4.3445570609701366e-11 1.9768521837508485e-11 0.0000000000000000 -88.898344731952406 -83.377922378373768 117.11292023788836 283.91631954144174 0.0000000000000000 0.0000000000000000 0.0000000000000000 0.0000000000000000 3.1618921815027603 3.3287950153077470 1.1669420156729482 1.0813347445338044 836.12629060744916 836.08531457672029 1.0802485301409845 
-99.070696535109519 -66.753401179917347 102.67368514072962 -99.070696535109519 -66.753401179917333 102.67368514072963 -170.49363859664109 1.8229268495330739e-06 9.1008490245587785e-06 -4.4478927595054095e-05 -176.78854704103216 7.5574059232863533e-09 -2.5267132830464334e-10 8.2395879488217361e-06 0.0011849366388642260 -1.1904474009052317e-11 -1.4780023396683552e-11 7.7819010871351172e-11 0.0011829436483605882 -97.595692787999965 -66.901700632800015 108.22015140479995 322.25788568967050 0.0000000000000000 0.0000000000000000 0.0000000000000000 0.0000000000000000 3.1729850018071484 3.3529798119948064 1.1800765301649405 1.0844482958195336 937.32165766219089 937.28823079912695 1.0863206876962672 
-80.892864266700158 -67.389653178162519 103.09230015967384 -80.892864266700158 -67.389653178162476 103.09230015967385 -167.43975232263463 -9.2156552695569318e-06 1.0518971252887026e-05 -1.9261180055871113e-05 0.0000000000000000 6.3037798314624630e-09 -2.4160518030669209e-10 8.2049869476463755e-06 0.0011762117152360632 2.8220798341394279e-11 -1.0994563552730917e-11 6.1985560818676543e-11 0.0000000000000000 -79.662532843379708 -67.531450170133141 108.61547480962874 295.38956150422752 0.0000000000000000 0.0000000000000000 0.0000000000000000 0.0000000000000000 3.1646152763929165 3.3350765792811270 1.1705191558224868 1.0820784159925143 903.18028087288621 903.17093207361950 1.0818988690083062 
-95.910252275140593 -81.845443954392167 103.10377184780843 -95.910252275140607 -81.845443954392124 103.10377184780842 -160.00951610348505 -1.3941615610825397e-05 1.4987466651492620e-05 -3.3368604304725594e-05 0.0000000000000000 7.3394464950027327e-09 1.0120904114785390e-11 8.2040387336945725e-06 0.0011855959988855828 5.3938233930849631e-11 -7.2603762239388283e-12 9.0869934950496885e-11 0.0000000000000000 -94.477787882002133 -81.839503548705352 108.62630821647583 293.80807890400462 0.0000000000000000 0.0000000000000000 0.0000000000000000 0.0000000000000000 3.1650023719587166 3.3356311695324101 1.1706820468951162 1.0820934825083552 882.95104566371072 882.94124391255889 1.0819740651478691 
-48.164528923272748 -126.39798335073266 134.97469672654049 -48.164528923272727 -126.39798335073272 134.97469672654049 -61.549798909546588 4.5338956751743223e-06 5.4955796007993671e-06 1.5273749296398255e-05 0.0000000000000000 4.2048561639025816e-07 -1.6278061683462774e-07 5.7732954516356270e-06 0.00094693044254453120 -9.0954542847511928e-12 -1.0955380113449402e-11 -9.3313513891707290e-12 0.0000000000000000 -47.292355390977058 -125.96433165720771 138.67232254046354 244.31333887135355 0.0000000000000000 0.0000000000000000 0.0000000000000000 0.0000000000000000 3.1815886509386822 3.3715101897833653 1.1900334501358834 1.0912905135173361 780.51940623967323 780.52394438776810 1.0908860860489265 
-34.841406739114959 -141.05468738018914 135.50201086609326 -34.841406739114966 -141.05468738018911 135.50201086609329 -60.440712012516357 1.2196167979953918e-05 1.0694502030691736e-06 7.6585173669698105e-06 0.0000000000000000 1.6450225897818550e-07 2.2081983914792393e-08 5.6279074239156217e-06 0.00092840374647808308 -6.2071472049198824e-11 1.2971565083303587e-11 3.4506009122844776e-11 0.0000000000000000 -34.196989160350306 -140.43319657724166 139.21506628885933 210.16870282748488 0.0000000000000000 0.0000000000000000 0.0000000000000000 0.0000000000000000 3.1795084427065650 3.3670243748144961 1.1876171298816833 1.0898417710551009 772.01720332707691 772.01693860433079 1.0897802263709300 
-31.513924329625784 -128.11999986683389 139.21534355643050 -31.513924329625773 -128.11999986683389 139.21534355643050 -72.959150683191965 9.1601240183235245e-06 3.4958509521177645e-06 1.9727575168591343e-05 0.0000000000000000 2.8984189492931023e-09 8.1589424105743557e-10 5.2192040165266462e-06 0.00093854856630615810 -2.1520244290627164e-11 -9.8673911852116039e-12 2.9288208736688122e-11 0.0000000000000000 -30.948229910445860 -127.64113600963313 142.72864290474456 229.21992526850030 0.0000000000000000 0.0000000000000000 0.0000000000000000 0.0000000000000000 3.1748420040862579 3.3570198361209727 1.1822651334141030 1.0879635485990309 777.91140836840623 777.91052840248346 1.0873189696285337 
-49.291080340868547 -131.38905122575176 143.62802363005545 -49.291080340868568 -131.38905122575173 143.62802363005542 -60.904311219959695 1.0894280049932518e-05 2.6218173874856501e-05 -1.1275169938534498e-05 0.0000000000000000 3.8165972109005346e-07 -1.8216767195497532e-07 5.0637459483849559e-06 0.00092018346973382148 -1.9584391710147245e-11 -1.0259444238224441e-10 5.5629691375824563e-11 0.0000000000000000 -48.406431667502837 -130.90513559487593 146.85896726379221 225.63426853136377 0.0000000000000000 0.0000000000000000 0.0000000000000000 0.0000000000000000 3.1840775875926868 3.3766240136448480 1.1926585796544371 1.0916514606355749 781.30662415142911 781.30710849928062 1.0920891052377539 
-53.873115831770072 -84.882976196262689 70.200755925664552 -53.873115831770072 -84.882976196262675 70.200755925664510 -155.08795676319832 -6.3552156747106366e-06 8.2704152440305211e-05 -0.00012870841280808150 0.0000000000000000 -5.7023934440641978e-08 1.3838651586087018e-07 1.1461811829768330e-05 0.0014967176813616748 7.7921355889903432e-11 8.4687894975820399e-10 1.7218836454338571e-10 0.0000000000000000 -53.009977022357148 -84.940192361847963 77.707205907375524 356.07450292316213 0.0000000000000000 0.0000000000000000 0.0000000000000000 0.0000000000000000 3.1704634125444340 3.3472567224236469 1.1768532411956298 1.0843557832486559 858.78774246075909 858.78772163374515 1.0847985014746726 
-40.995911115180178 -85.668022317421233 59.464187430184680 -40.995911115180199 -85.668022317421233 59.464187430184673 -245.40482839221519 4.9601962642081791e-06 2.2383777834214707e-05 -7.6310983918553802e-05 0.0000000000000000 -4.5041409261942299e-08 5.7128101376439305e-08 1.1767463135969536e-05 0.0014915359405312429 5.4014983512802126e-11 5.5903603751466995e-11 -1.3224256417583095e-10 0.0000000000000000 -40.313282635619565 -85.652866469445740 67.489144002613742 334.72004880612383 0.0000000000000000 0.0000000000000000 0.0000000000000000 0.0000000000000000 3.1611754481549172 3.3283925175009172 1.1672805968713755 1.0818832764549078 1029.5537028339706 1029.5537059002238 1.0803989083026808 
-43.618045408771458 -94.135998125295259 76.141925312487658 -43.618045408771451 -94.135998125295316 76.141925312487686 -126.57672437169566 8.1633931469657722e-05 1.3149568768479729e-05 -5.0351475813319009e-05 0.0000000000000000 -1.1980427311274666e-08 -7.0665157402285690e-08 1.1104799919482081e-05 0.0013917506719935634 3.7221450629509483e-10 1.4279217925955455e-10 8.0031022087949891e-10 0.0000000000000000 -42.930125987095458 -94.071309017270835 83.274511392489799 283.94561953274422 0.0000000000000000 0.0000000000000000 0.0000000000000000 0.0000000000000000 3.1734003222191500 3.3536325664802016 1.1803062189367166 1.0847459737080227 833.94219832549913 833.94219903307510 1.0864119473747909 
-45.703013857147205 -99.152535064574792 60.100324515546440 -45.703013857147205 -99.152535064574764 60.100324515546404 -189.62117560639675 7.3666416497413228e-05 3.7888448543417517e-05 -0.00011976701966041369 0.0000000000000000 3.8769512045178089e-09 3.1148550405646342e-10 1.1758527699967658e-05 0.0014602101621842912 -3.3513801213651288e-10 -8.5142922895536411e-11 -5.5223970942232787e-10 0.0000000000000000 -44.946335306532468 -98.969717126470769 68.015559797458934 339.42980011114588 0.0000000000000000 0.0000000000000000 0.0000000000000000 0.0000000000000000 3.1700855566003177 3.3472993826985662 1.1773020272932653 1.0841313837781372 934.00378873802026 934.00378794129551 1.0850249418795530 
-36.253327631754367 -101.01039174436488 67.814367816208161 -36.253327631754367 -101.01039174436484 67.814367816208176 -181.56284020967274 4.9062648678823146e-05 2.3476262236854082e-05 -5.3010563085384054e-05 0.0000000000000000 -5.0487116810790708e-08 -6.3622282546108825e-08 1.1275671686648567e-05 0.0014444414956656091 2.2653929534545044e-10 -1.7868480838513781e-10 1.6532813589728384e-10 0.0000000000000000 -35.672109309640206 -100.83293553867907 75.360366609178811 338.44965823895870 0.0000000000000000 0.0000000000000000 0.0000000000000000 0.0000000000000000 3.1580029786438235 3.3217340589531124 1.1637906650942467 1.0816099094206622 907.40236578038582 907.40236490407915 1.0787882122238346 
-49.787447799302306 -112.30935673394481 57.312811276791763 -49.787447799302306 -112.30935673394480 57.312811276791763 -164.28605282672297 9.4346434751260756e-05 1.8703205826366618e-05 -6.8533929748538198e-05 -126.68425777362798 4.1586363241918881e-09 5.4058579834759268e-10 1.1988932140383213e-05 0.0013574114971609025 -2.9163872664031580e-10 2.4745297170671954e-10 3.7401992089129342e-12 0.0013170480796378466 -48.975793059600008 -111.99207679200002 65.383142959360015 326.57209562220959 0.0000000000000000 0.0000000000000000 0.0000000000000000 0.0000000000000000 3.1693416124658857 3.3449280927805796 1.1756495401979825 1.0843600053202349 895.38970923063187 895.38970980185888 1.0842624623299368 
-25.727344323549126 -110.78355769914637 59.522257610612392 -25.727344323549122 -110.78355769914641 59.522257610612364 -232.38382033304464 1.7254443592052099e-05 1.2536693795977268e-05 -6.1822200666476252e-05 0.0000000000000000 2.4993537239836887e-09 5.1402704315250958e-10 1.1806308346962170e-05 0.0014168878603633599 -7.6485892770677365e-12 -8.8696322652365875e-11 2.5520264664053568e-11 0.0000000000000000 -25.239536857883341 -110.48187134057846 67.469656361758609 349.35568362690350 0.0000000000000000 0.0000000000000000 0.0000000000000000 0.0000000000000000 3.1646480799703869 3.3354982401319835 1.1709170976570820 1.0826653042372285 1021.2634600737445 1021.2634606626370 1.0820856283539135 
-44.820654808616851 -111.57841128362729 69.034247546222886 -44.820654808616844 -111.57841128362726 69.034247546222844 -134.53064174587686 4.8426648208580907e-05 -4.4052436717886827e-05 -3.0710435803476439e-05 0.0000000000000000 3.8161048765417149e-09 5.2786197635157350e-10 1.1020086180479893e-05 0.0013304993041519156 -9.9688989945917606e-11 -7.4662647201421995e-11 3.3630321981907429e-10 0.0000000000000000 -44.075852747763513 -111.26860156453857 76.452402029906395 268.59635586333832 0.0000000000000000 0.0000000000000000 0.0000000000000000 0.0000000000000000 3.1744410432909596 3.3563519035820137 1.1820034623264390 1.0844255797525115 870.59284614300032 870.59284427614716 1.0872043183565230 
-59.280688783449044 -106.76228841633733 99.587136056475842 -59.280688783449030 -106.76228841633734 99.587136056475785 -49.682824849701213 1.4766040121353992e-05 4.0131283192895586e-05 4.4111669690069340e-06 0.0000000000000000 4.1751122518217485e-07 -3.3064445477622423e-07 9.0152665535153332e-06 0.0010697708892049595 -8.3792803839465781e-11 -2.0111399381704260e-10 6.9626490027449070e-11 0.0000000000000000 -58.254647241440821 -106.62760994408018 105.33920711112118 241.62621693813244 0.0000000000000000 0.0000000000000000 0.0000000000000000 0.0000000000000000 3.1891610858816981 3.3872644175125792 1.1982288267105614 1.0937716189979230 774.60509831817023 774.60563108605504 1.0946345188591389 
-65.503797087488863 -90.022349531573781 90.354354886309181 -65.503797087488906 -90.022349531573795 90.354354886309224 -93.490313939444917 -2.2780366529802639e-05 5.6363963479659711e-06 4.1391938312202863e-05 0.0000000000000000 3.1104088856736321e-07 -4.3056807318386213e-07 9.8652596909862575e-06 0.0011682643027353145 9.0321558141272703e-11 -7.0094050771061758e-11 -2.3275370459601720e-10 0.0000000000000000 -64.370648572599308 -90.090304358695661 96.688480747766732 239.98138923263960 0.0000000000000000 0.0000000000000000 0.0000000000000000 0.0000000000000000 3.1802086780096066 3.3679677095241227 1.1878394841870632 1.0868769173834265 805.77076378651861 805.77087092568001 1.0898629814445189 
-77.229560089965815 -99.776393118084755 95.288802322212604 -77.229560089965801 -99.776393118084783 95.288802322212618 -82.902092493409754 -3.6965247023743599e-05 4.6210645042381996e-05 -1.1029734753226212e-05 0.0000000000000000 4.5286524011688085e-07 -2.4107363443080098e-07 9.3521234853677556e-06 0.0011637613266260694 1.9806096827070662e-10 -2.0501941661340928e-10 1.0438771946387947e-10 0.0000000000000000 -75.913673002404863 -99.702254402691466 101.32606574872912 288.13617662859207 0.0000000000000000 0.0000000000000000 0.0000000000000000 0.0000000000000000 3.1833013125211478 3.3747278691223248 1.1915292898109113 1.0893413787751671 802.79615721666664 802.79510243850473 1.0915817944038222 
-56.144274557782623 -93.570715016177445 97.426320759332427 -56.144274557782630 -93.570715016177459 97.426320759332441 -86.859903163838595 -5.7745263433263185e-07 2.4393869006241764e-05 1.8342097074626449e-05 0.0000000000000000 3.2501750685696450e-07 -4.0187483956499910e-07 9.2952022283210081e-06 0.0011341151797898295 5.5650679424129674e-11 -4.9722555354180203e-11 3.6778209344083788e-11 0.0000000000000000 -55.164710769962618 -93.586508083202432 103.32606452766413 222.68531933077850 0.0000000000000000 0.0000000000000000 0.0000000000000000 0.0000000000000000 3.1799041970210924 3.3670237661154609 1.1871974631405167 1.0890760000832829 821.05748998513423 821.05775241702588 1.0895867207539984 
-46.530595563502949 -176.87292135401034 152.89710481825728 -46.530595563502949 -176.87292135401032 152.89710481825736 -59.961632780063262 -2.2623380869350530e-05 -2.1735966318097857e-05 4.6151037528062844e-05 0.0000000000000000 3.9340262159015538e-09 1.6648320499967893e-09 4.0883256211543539e-06 0.00088862386396857556 3.9198386304134288e-11 7.3188233593736869e-11 -6.9924317784217543e-11 0.0000000000000000 -45.762777822239421 -175.89580528354742 155.64915507299250 248.91339099022119 0.0000000000000000 0.0000000000000000 0.0000000000000000 0.0000000000000000 3.1806839704162075 3.3685821272171630 1.1879788006395589 1.0882873179861712 750.84710814557582 750.84711113327546 1.0899386806992792 
-52.280709313171435 -186.63974388296077 166.13840567393535 -52.280709313171435 -186.63974388296080 166.13840567393532 -70.889134551374994 2.9737126574123442e-06 -4.2470325234948939e-06 -3.5327292852289529e-06 -77.254900726660964 4.3305808938853829e-09 1.8349173291909437e-09 2.9938538652629632e-06 0.00088232293302961575 -9.7623469840862371e-12 1.7804872193140958e-11 2.3469851347367899e-11 0.00088747292742455582 -51.435495451599998 -185.56281141599996 168.15371392000000 294.81703600272857 0.0000000000000000 0.0000000000000000 0.0000000000000000 0.0000000000000000 3.1684019002787491 3.3432022294362063 1.1748702089801022 1.0846230604399796 744.87194508494667 744.87194286492206 1.0839168462616462 
-43.403290868067280 -172.10128959014432 164.14531925547377 -43.403290868067288 -172.10128959014432 164.14531925547374 -68.002241901135392 4.3211205400999173e-06 -4.0067773327191062e-06 1.0196019246744008e-05 0.0000000000000000 1.8317706880414196e-08 -9.9383401914064709e-08 3.1934342490070094e-06 0.00089084181037018498 -2.1854112969645835e-11 -2.6672489152562632e-11 8.0498680079028452e-12 0.0000000000000000 -42.672974891599750 -171.18173466392949 166.26923354793541 271.88244999766295 0.0000000000000000 0.0000000000000000 0.0000000000000000 0.0000000000000000 3.1705233206093619 3.3476439207639523 1.1771942373834712 1.0855045873014799 743.13726370891686 743.13726594347111 1.0849865783708343 
-60.336377501018809 -179.01640576192779 155.12237941900233 -60.336377501018823 -179.01640576192770 155.12237941900233 -77.933894168270456 -1.1627861220453807e-05 -4.6073384996428844e-06 -2.2162709583188789e-06 0.0000000000000000 4.8861262813559847e-09 1.7021646314674397e-09 3.9043935249338801e-06 0.00091130845167553378 3.4319333820602853e-11 6.1465997787854349e-12 1.3728570953375184e-11 0.0000000000000000 -59.382734921100123 -178.01738339707751 157.75061606229067 243.94852352315442 0.0000000000000000 0.0000000000000000 0.0000000000000000 0.0000000000000000 3.1699957378741273 3.3463246558647062 1.1763952809402400 1.0853518320154838 759.00860617323883 759.00860762796538 1.0846192692834231 
-31.221677329251193 -102.90678729440948 88.949955677956979 -31.221677329251182 -102.90678729440953 88.949955677956964 -78.162553305117370 2.0531101312438914e-05 3.7917603226922138e-05 -8.3802759576745314e-05 0.0000000000000000 -5.5262185438183959e-08 -8.9995735914042328e-09 9.8096266610188381e-06 0.0012514223885863498 -3.0718357769674530e-10 4.7475624093696560e-10 2.8249828781464499e-11 0.0000000000000000 -30.660097366607719 -102.72526557899965 95.328291536857705 204.58703120518373 0.0000000000000000 0.0000000000000000 0.0000000000000000 0.0000000000000000 3.1788525042504716 3.3644790382471732 1.1856934420499945 1.0878873843490706 780.86223637256307 780.86219031157827 1.0888908159428430 
-19.204228340178478 -111.21201631368282 86.931690525012442 -19.204228340178478 -111.21201631368284 86.931690525012485 -124.92550422266181 3.8534788069548557e-05 1.7685154137347837e-06 -7.5550075022482591e-05 0.0000000000000000 2.0494924091174482e-09 5.2148485529812660e-10 9.5407567926031334e-06 0.0012905933371794120 2.5307849721832049e-10 -3.5657228807542738e-12 -1.1440276775904900e-10 0.0000000000000000 -18.804221549666405 -110.90595113131390 93.354036648627854 267.24800799435923 0.0000000000000000 0.0000000000000000 0.0000000000000000 0.0000000000000000 3.1679553398263338 3.3418476148496974 1.1739514907172932 1.0843505198917371 848.45684501351184 848.45683582770766 1.0834950893004072 
-34.379430833400008 -104.93802766458472 77.989420920819157 -34.379430833399994 -104.93802766458474 77.989420920819157 -130.20867540967021 4.0558082663043437e-05 -8.1198553245997884e-06 -5.9988406484082209e-05 0.0000000000000000 -1.5334285455551666e-07 2.3640228281384665e-08 1.0661654501259528e-05 0.0012774989794579067 -2.1970318966857062e-10 1.2963897125297284e-11 -1.1550912849406509e-11 0.0000000000000000 -33.815892125380543 -104.71065599625929 85.007910193808286 270.69679205096202 0.0000000000000000 0.0000000000000000 0.0000000000000000 0.0000000000000000 3.1628809695267814 3.3319501828857203 1.1691371363949579 1.0831083964733215 830.88406042877136 830.88408362509040 1.0812547414970159 
-19.322786294384894 -100.57705762493468 89.096147620410022 -19.322786294384898 -100.57705762493468 89.096147620409994 -104.09374217626737 1.4873188215484061e-05 -5.1880153505248107e-06 -1.9510058294587166e-05 0.0000000000000000 2.0576702008945347e-09 3.3630342954893422e-10 9.3618516352478309e-06 0.0011949671060198638 1.0918506891921679e-10 1.4255352130174582e-10 4.9213564400932265e-11 0.0000000000000000 -18.921183722278450 -100.37968114352928 95.398064000337470 185.31956687594098 0.0000000000000000 0.0000000000000000 0.0000000000000000 0.0000000000000000 3.1713156575174484 3.3487516553092167 1.1774969521548859 1.0848250299399063 819.13243374872445 819.13246924469775 1.0851329850429727 
-31.679550282699093 -118.32841781485951 171.54005004348627 -31.679550282699093 -118.32841781485953 171.54005004348622 -103.19672859452280 3.7542574817966982e-05 3.9048362489787498e-05 1.1510259622606748e-05 0.0000000000000000 -1.0075617182251004e-08 -8.9482215161198528e-08 2.4246479920340224e-06 0.0010371389252907437 -4.9422357279982193e-11 -4.8957637498874906e-11 -6.3797385213269442e-11 0.0000000000000000 -31.124431206993112 -117.97934695114738 173.21200361760444 258.17126679857051 0.0000000000000000 0.0000000000000000 0.0000000000000000 0.0000000000000000 3.1717123887834768 3.3498499570698650 1.1782029615597347 1.0859990133788984 809.24819394633369 809.24797587915259 1.0854510764229628 
-31.206177181570467 -133.65260295877917 162.61350496436981 -31.206177181570439 -133.65260295877908 162.61350496436987 -79.373843603175501 2.8022001724112766e-05 1.6916741888054182e-06 -1.6835499977344719e-06 0.0000000000000000 5.8057886360014929e-08 -8.8166232413821392e-08 3.2482905778471781e-06 0.00094201530658810650 -5.3384307791617700e-11 -3.7791418320942650e-11 -3.4970954906674558e-12 0.0000000000000000 -30.642131568542830 -133.13454878399213 164.80820313575899 262.24283076768535 0.0000000000000000 0.0000000000000000 0.0000000000000000 0.0000000000000000 3.1751865139242015 3.3574390697838217 1.1823337618710685 1.0876033114641515 783.27393330500740 783.27375358158952 1.0873502277335225 
-43.423624283934728 -120.43404831966245 161.50726117058281 -43.423624283934721 -120.43404831966245 161.50726117058278 -61.739660748142619 5.0924404159084186e-05 2.5452606854013902e-05 7.7925072185546576e-06 0.0000000000000000 1.1291083970928711e-07 -2.5925154796523824e-07 3.1966084430406748e-06 0.00096821619541791095 -1.0661129276272332e-10 -8.7229827072109201e-11 -2.3459324527693722e-10 0.0000000000000000 -42.676694985445003 -120.10595080876966 163.70375490782192 268.28772502602959 0.0000000000000000 0.0000000000000000 0.0000000000000000 0.0000000000000000 3.1885865141003937 3.3857802277496916 1.1973058445600655 1.0921438657657969 779.97979366643312 779.98027922880669 1.0942135982742645 
-24.214771674226416 -114.57439597780352 159.42386842769503 -24.214771674226423 -114.57439597780342 159.42386842769511 -107.95196469477833 1.7319572593950171e-05 1.3616053021756788e-05 1.5373250118907905e-05 0.0000000000000000 2.3950419425489144e-09 5.8003846170606721e-10 3.5488500458313861e-06 0.00098811253988583935 -4.2025182665838427e-11 -3.8604689392103392e-11 -3.2336028285518452e-11 0.0000000000000000 -23.747323328369049 -114.23396745764113 161.81277151251504 321.01516800445251 0.0000000000000000 0.0000000000000000 0.0000000000000000 0.0000000000000000 3.1683077750438100 3.3428452660638577 1.1746006855666475 1.0848045223249974 814.45550551232850 814.45620295072843 1.0837938908391651 
-6.6950825706521542 -105.23250769258728 103.85051147124031 -6.6950825706521524 -105.23250769258726 103.85051147124028 -51.026234391962966 2.3611598429251804e-06 -2.4324727181380532e-06 -4.3029507607109141e-05 -32.047727644841466 1.1868140359361234e-09 4.1736258893365625e-10 8.1423162932026116e-06 0.00092610214145916290 -1.2152560086292492e-11 1.0593813677196295e-11 1.9847399041224635e-10 0.00086517221939532503 -6.4634479885999987 -104.98755276399999 109.33149947120000 327.67017865987640 0.0000000000000000 0.0000000000000000 0.0000000000000000 0.0000000000000000 3.1695738691075968 3.3456799706824416 1.1761775554240568 1.0850118814796630 696.37309789460403 696.37280248180480 1.0845182176777715 
-12.111375937858774 -97.280567066296285 95.491608478689727 -12.111375937858776 -97.280567066296285 95.491608478689727 -90.887520423529779 -2.0482882063599963e-06 -4.3601740655471109e-06 -4.9193645929577527e-05 -84.448088414261974 1.5603430492117103e-09 2.7890056930601764e-10 8.8332290015813442e-06 0.0010932038666830782 2.0978685218450030e-11 -2.3587075476766275e-11 1.3098524511528103e-10 0.0010840965459781456 -11.806838433999999 -97.116880539599975 101.43768333439998 212.90238721710071 0.0000000000000000 0.0000000000000000 0.0000000000000000 0.0000000000000000 3.1688781601915572 3.3440764892817958 1.1752661724665379 1.0844482958195347 779.00953110952912 779.00954840662405 1.0840972388080419 
-16.209299907157387 -110.66053183254415 97.249140370288970 -16.209299907157398 -110.66053183254415 97.249140370289012 -77.067172980709273 1.9339709697352320e-05 -4.3662838407500729e-06 -9.2806181869269379e-05 0.0000000000000000 1.8429528458874243e-09 5.1188320249195840e-10 8.6879586209676063e-06 0.0010465596180434975 -1.2125088424399914e-10 3.6257577160526912e-11 2.9250809173872649e-10 0.0000000000000000 -15.849604639409371 -110.36010279166017 103.09742667861765 236.22178992679409 0.0000000000000000 0.0000000000000000 0.0000000000000000 0.0000000000000000 3.1680720128156228 3.3425700244609744 1.1745679895191292 1.0848706241552131 757.66007473448747 757.66011412447199 1.0837758697982820 
-24.217057770946372 -99.722859078653300 96.385508405352113 -24.217057770946372 -99.722859078653343 96.385508405352098 -73.912300719056446 2.4147830042407394e-05 3.8253894352984271e-05 -5.8044029070921175e-05 0.0000000000000000 2.3951999272853190e-09 3.2142533079593250e-10 8.7593429025645264e-06 0.0010676081944023415 -9.2144364538127550e-12 -1.4512983978049318e-10 2.3953611577219641e-10 0.0000000000000000 -23.749578654390465 -99.534212460059550 102.28184693721489 211.57004919854941 0.0000000000000000 0.0000000000000000 0.0000000000000000 0.0000000000000000 3.1721169176625126 3.3511020836482621 1.1790606366610801 1.0861735308485945 760.09620102367614 760.09593907180715 1.0858447121197654 
-55.070142625220477 -108.54191349152117 108.62425067065880 -55.070142625220477 -108.54191349152116 108.62425067065878 -30.541664890704098 1.0430156529908745e-05 3.3173456238534239e-05 -2.4455898117149761e-05 0.0000000000000000 5.5323048143855373e-07 -2.8995705352201226e-07 8.1819874081288022e-06 0.0010645927826628849 -4.8805292206655618e-11 2.8344849191510216e-11 -3.0681981909091259e-10 0.0000000000000000 -54.087034329299712 -108.37170302860723 113.84396407125838 191.01171882188567 0.0000000000000000 0.0000000000000000 0.0000000000000000 0.0000000000000000 3.1940659511776484 3.3973966071009385 1.2034613381922270 1.0958815475348997 749.72513289287963 749.72387528161789 1.0970251712667052 
-42.487338493947782 -107.92448534264537 105.57162919603523 -42.487338493947775 -107.92448534264533 105.57162919603523 -40.249301144474451 -1.1104278016793671e-05 2.4794427677590825e-05 6.1189573243933426e-06 0.0000000000000000 4.9466067184517303e-07 -3.7512280318876224e-07 8.4496073870421714e-06 0.00091873049410859105 1.7310806190067080e-10 -3.2199584304072829e-10 -1.4830125525972145e-10 0.0000000000000000 -41.690910404717421 -107.74885629568415 110.97670241767709 270.34727434602189 0.0000000000000000 0.0000000000000000 0.0000000000000000 0.0000000000000000 3.1883506936245469 3.3848527793735692 1.1966020949992073 1.0935649222467609 761.04893148600638 761.04906829585400 1.0938933761440746 