# For a description of the Tecplot format see the Tecplot User's guide.
#
Variables=x,y,z,s_u,s_v,s_w,s_p,mono_f_vel_u,mono_f_vel_v,mono_f_vel_w,const,u_nu,v_nu,w_nu,p_nu,x_nu,y_nu,z_nu,const,u_ref,v_ref,w_ref,vol_ref,x_ref,y_ref,z_ref,const,I1,I2,I3,J,p1,p2,p3
Zone f=fepoint, n=356, e=1130, et=brick, c=black
-67.8647 -97.8567 78.6019 -67.864681697152790 -97.856746445061148 78.601859042723689 -1587.0097666689858 -3.5821412385479592e-14 -6.7616759960770760e-16 5.9930055907351710e-13 1.3902866788483518e-27 1.9945664009313187e-09 8.0948359126864489e-11 1.5611678797711193e-05 5.5561478180731596 1.5274508866132544e-16 6.9638233231354726e-17 -8.8452307225749347e-16 -2.5467872116448284e-29 -65.754724465942431 -97.517594547729473 92.373562431030237 2074.8615187338191 0.0000000000000000 0.0000000000000000 0.0000000000000000 0.0000000000000000 3.3631851638790620 3.7581652273237860 1.3959143083365126 1.1804713476479516 4631.8305426185389 3454.6022509955956 1.1814485823678071 
-78.133498318651093 -131.58883553838831 63.423754116598580 -78.133498318651093 -131.58883553838834 63.423754116598595 -403.87428289151910 -7.2066898964932671e-14 -8.6347582106415209e-15 1.0841379923396136e-14 293.72849878662237 2.2558800383265520e-09 2.4549229316050969e-10 1.7526360373665284e-05 0.23749804187848630 4.9290759385973771e-17 4.7933810759833561e-16 -3.0492714139217194e-16 -10.327628737049746 -75.747104543999981 -130.56019973999997 78.884476808000016 2128.8259272129790 0.0000000000000000 0.0000000000000000 0.0000000000000000 0.0000000000000000 3.3636425075838030 3.7592554790394099 1.3964400336482978 1.1804713476479509 1857.1104719301393 2221.9453327827136 1.1816329904221841 
-65.467705371321415 -122.64034685367569 54.822792279561369 -65.467705371321415 -122.64034685367571 54.822792279561376 17.993289941936897 4.0053238854389480e-14 7.1904197848751348e-14 -6.5800559104260630e-14 945.02330026265940 1.9335580914159323e-09 2.0185564331143271e-10 1.8611351109143470e-05 0.026880244879439939 -4.3290235185900973e-18 -2.9730519917009754e-16 2.2227142034127972e-16 2.1092600739207641 -63.422274742800013 -121.79461816400000 71.240629883439979 1237.7701333319521 0.0000000000000000 0.0000000000000000 0.0000000000000000 0.0000000000000000 3.3674896129173750 3.7609193581279041 1.3938257837573664 1.1804713476479511 963.91315475927809 1144.7970009397679 1.1806237725013935 
-57.996627332113263 -133.13988646737633 60.899831386642212 -57.996627332113242 -133.13988646737633 60.899831386642205 -332.70992779120945 9.8690281078390547e-14 -5.9003747662517272e-14 -1.5773437794040974e-15 546.02508738009999 1.7434421684114909e-09 2.5306401418845326e-10 1.7844747176809506e-05 0.18947935557266316 -2.4667060853541924e-16 5.9680545673594469e-16 -3.8203543887188963e-16 -9.8626424284069412 -56.152318124399997 -132.07954718800002 76.641416164000006 2090.5778096190215 0.0000000000000000 0.0000000000000000 0.0000000000000000 0.0000000000000000 3.3549164932275839 3.7439817228746146 1.3901867181436829 1.1804713476479511 1371.2033381652943 1776.9924594860786 1.1790150945307334 
-126.58867278318891 -110.99510324226219 75.039278048692466 -126.58867278318891 -110.99510324226219 75.039278048692481 -412.48763383646957 -7.1267233111858443e-15 -1.8790363041857448e-14 6.2011359451834403e-14 411.68958503677504 3.4889510169833216e-09 1.4504020207084525e-10 1.6061089841201692e-05 0.15722045676538096 -4.3855074486247576e-18 1.6352730010210971e-17 -6.9176004125118264e-17 -0.042656224459664258 -122.89786571200003 -110.38740333199999 89.207425400000020 2092.2379289329847 0.0000000000000000 0.0000000000000000 0.0000000000000000 0.0000000000000000 3.3656499966811841 3.7598647618445087 1.3948302714375720 1.1804713476479509 2028.2956694736627 2085.9325657824888 1.1810461380591113 
-126.45708017826448 -129.48984755194613 79.849021833547468 -126.45708017826449 -129.48984755194618 79.849021833547482 -540.86466025079835 7.5590653879426926e-15 -3.2262845698944398e-14 1.2844240006261855e-14 -704.86289720963589 3.4855976993597437e-09 2.3527646497711880e-10 1.5454352190857890e-05 0.097654671406675178 7.0099248191007145e-18 -1.1490607754047514e-16 6.1072699746199109e-17 -0.72794096236732508 -122.76981557999994 -128.50411506799998 93.481940963999989 2295.0048277193882 0.0000000000000000 0.0000000000000000 0.0000000000000000 0.0000000000000000 3.3673384785729534 3.7610954355619488 1.3941506642087045 1.1804713476479516 3413.9812070124676 3417.4673229878249 1.1807497555651454 
-90.040885828910717 -120.35212806713757 96.198127339220164 -90.040885828910675 -120.35212806713754 96.198127339220221 -665.46329502761910 1.6813988373358138e-13 1.7118471676123264e-13 -1.1085120321411970e-13 3.1866439011208850e-28 2.5588972052403851e-09 1.9068990830817256e-10 1.3391951689811778e-05 0.90599784694066288 -2.4920200474725727e-16 -3.4965680787170548e-17 -9.4057109249857112e-17 -1.0860263979140533e-29 -87.333945182495114 -119.55317056945796 108.01171823852533 1853.2119812635015 0.0000000000000000 0.0000000000000000 0.0000000000000000 0.0000000000000000 3.3581590224019058 3.7509763755846035 1.3942688388272848 1.1804713476479514 3012.8924087015316 2928.8751742102772 1.1807835667291189 
-125.55992657527283 -119.73564799296369 95.102100724832781 -125.55992657527283 -119.73564799296368 95.102100724832781 -241.82020957547238 -1.2657565068502308e-14 -5.1068184914281341e-14 -1.1259851777037440e-13 -380.21047465715259 3.4627661849029319e-09 1.8768342435748764e-10 1.3530212822132626e-05 0.052182877228335929 2.7602655958667080e-18 4.6430807879755581e-17 5.1450615790492673e-17 0.39219304519303305 -121.89681335200000 -118.94929134799999 107.03765745040002 1571.7251237143605 0.0000000000000000 0.0000000000000000 0.0000000000000000 0.0000000000000000 3.3670751722416545 3.7607784329469434 1.3939607680237420 1.1804713476479509 2387.6694440941551 2451.4460703986406 1.1806948954974761 
-45.688477565394933 -165.34289131129054 113.79438991693303 -45.688477565394926 -165.34289131129057 113.79438991693308 -22.839930607653869 -6.7366435811460523e-15 2.5286197418489822e-14 -1.8388496296564748e-14 0.0000000000000000 1.4302284911948959e-09 4.1017611529525766e-10 1.1172225306665950e-05 0.11519347598832702 5.5958012448639112e-18 -5.3928663530384522e-17 2.8042566005020413e-17 0.0000000000000000 -44.175503749389662 -163.62432261291502 123.64986896362305 1288.7765825848380 0.0000000000000000 0.0000000000000000 0.0000000000000000 0.0000000000000000 3.4031763953712679 3.8494196574079260 1.4476094113194085 1.1934495172434101 1937.3583386561577 2162.3054782232357 1.2031748416363692 
-16.197299132212965 -145.17102419043167 127.76180251965314 -16.197299132212969 -145.17102419043164 127.76180251965319 -85.468870708071222 -1.9284872048106328e-15 -1.9371914624105396e-14 -2.4844693536358705e-14 140.87351982390777 6.7974431638972987e-10 3.1177749271193989e-10 9.4102696621689574e-06 0.061831770372035716 -2.4175598298832834e-17 1.7240960195004448e-16 -4.2711499905414372e-17 -0.48292834074889579 -15.478227839600008 -143.86476845600004 136.06298808800005 1207.7015194609139 0.0000000000000000 0.0000000000000000 0.0000000000000000 0.0000000000000000 3.3642795187446293 3.7564432744888152 1.3927682757898576 1.1841289839973084 2460.5455769152650 2434.5922081910389 1.1800981654493898 
-45.688477565394933 -165.34289131129054 131.39065249464585 -45.688477565394962 -165.34289131129049 131.39065249464591 -119.40491163204891 1.4512297405261881e-14 3.6180208942012927e-15 -5.4187974811323255e-15 0.0000000000000000 1.4302284911948959e-09 4.1017611529525766e-10 8.9524989270728366e-06 -0.054323674357814974 5.0428806136740156e-19 5.7071410424169832e-17 -1.7857709465964973e-17 0.0000000000000000 -44.175503749389669 -163.62432261291511 139.28801968872074 2260.0113226803110 0.0000000000000000 0.0000000000000000 0.0000000000000000 0.0000000000000000 3.3618944885133439 3.7515445129913028 1.3902458410462593 1.1865434378559543 2124.8920416442220 2034.8116275560699 1.1791807133287593 
-6.3354640286754087 -163.13210962061885 121.41830616293325 -6.3354640286754078 -163.13210962061885 121.41830616293326 -283.61970732587150 1.7006736188208763e-14 3.2066324883270660e-15 3.1083380901667682e-14 -172.42951920567199 4.2878312012106790e-10 3.9939540563693754e-10 1.0210486543371646e-05 0.014046500825315026 5.3644212095570325e-18 -1.3082755456611574e-17 5.7458247522078542e-18 -0.16170017266264120 -5.8818733370400009 -161.45872929999999 130.42539591680000 1840.5999298976626 0.0000000000000000 0.0000000000000000 0.0000000000000000 0.0000000000000000 3.3605101571517717 3.7481738961341056 1.3882190512495283 1.1804713476479516 2338.3984015373858 2230.6099275769311 1.1782353231690481 
-10.342117822562928 -107.64825999835787 180.56370670850652 -10.342117822562928 -107.64825999835786 180.56370670850652 -82.000308006965696 2.3985774603795357e-15 1.1445898726363994e-14 -5.2334289943934106e-15 -51.856489168331457 5.3074405981234918e-10 1.2871193000307812e-10 2.7494359358115616e-06 0.00070135012913234024 -8.7844091177928466e-20 1.5094705798636743e-17 -1.0410055440849202e-17 -0.26691890790353595 -9.7806680107999995 -107.10896956400003 182.98909712000000 1021.2952016557671 0.0000000000000000 0.0000000000000000 0.0000000000000000 0.0000000000000000 3.3648890258838584 3.7582869635357090 1.3940183817660459 1.1804713476479487 1963.1248735162785 1890.8772297012563 1.1806856980106755 
-18.342589227167021 -109.20841446362746 192.27135308941075 -18.342589227167021 -109.20841446362746 192.27135308941072 -90.163817274377351 -1.5705842928400300e-14 1.8093409551005771e-14 1.0244012199738795e-14 -106.97232883282780 7.3433786829113501e-10 1.3632495132753775e-10 1.2725443667704894e-06 0.0011885005496340053 1.9327335585716992e-18 6.5746261142547124e-18 -1.1572005854701845e-17 -0.082956728027392304 -17.565766725200003 -108.63723447200002 193.39391677600000 1230.2822850381203 0.0000000000000000 0.0000000000000000 0.0000000000000000 0.0000000000000000 3.3650094404228961 3.7583912102362893 1.3939940514337830 1.1804713476479516 2046.4996753970595 1987.6556724467541 1.1806638582786930 
-45.688477565394933 -120.35212806713757 166.58317765007158 -45.688477565394905 -120.35212806713756 166.58317765007141 -180.18558726299500 -9.2037186830812992e-15 1.4978514756531557e-14 2.3030944921776162e-14 0.0000000000000000 1.4302284911948959e-09 1.9068990830817256e-10 4.5130461820974688e-06 0.081936559631807238 8.0336604307444011e-18 -2.5233219069771930e-18 3.4352427828528557e-17 0.0000000000000000 -44.175503749389591 -119.55317056945772 170.56432113891603 1872.3464537223574 0.0000000000000000 0.0000000000000000 0.0000000000000000 0.0000000000000000 3.3613976024685499 3.7520561969665267 1.3913770870986892 1.1804713476479516 2204.1117796564940 2434.0480479704202 1.1796344805553776 
-9.8808729892506140 -125.29714204743529 187.17493533752963 -9.8808729892506140 -125.29714204743529 187.17493533752963 -164.71124217051539 1.5363514426053973e-14 -8.0039949275257118e-14 -4.3084878284708575e-14 -232.08721355821237 5.1900661546255833e-10 2.1480706102749994e-10 1.9154452814973411e-06 0.0011699738923570380 4.0140284560514222e-18 -3.8428283192222368e-18 -3.1861357905046805e-18 0.014213087520349939 -9.3318398883999993 -124.39710846400000 188.86462832000004 1016.3527334425750 0.0000000000000000 0.0000000000000000 0.0000000000000000 0.0000000000000000 3.3651782161722794 3.7586523972676495 1.3940798806800172 1.1804713476479480 2389.5254082346351 2343.6581452828254 1.1806908100237548 
-45.688477565394933 -165.34289131129054 96.198127339220179 -45.688477565394933 -165.34289131129057 96.198127339220207 -113.06184435054769 -2.4199018401642346e-14 2.7291861131840855e-14 3.4926631881884390e-14 1.1005506420256721e-26 1.4302284911948959e-09 4.1017611529525761e-10 1.3391951689811776e-05 0.0060826058833358676 3.3315545335408021e-19 5.7487715834824752e-17 2.3976476803414222e-17 -2.8904886554676190e-28 -44.175503749389662 -163.62432261291499 108.01171823852535 1450.3671205666894 0.0000000000000000 0.0000000000000000 0.0000000000000000 0.0000000000000000 3.3690210495795423 3.7665853281839690 1.3981700581141683 1.1847175604221949 1162.3645598321864 1934.2828993550718 1.1824398287761897 
-63.136324628527703 -162.61771190736002 71.433370036521126 -63.136324628527724 -162.61771190736002 71.433370036521154 -1122.7946256244836 -8.1960397327845363e-14 -1.6566965638539559e-13 -4.0069036971733293e-14 531.22437363123322 1.8742382090763954e-09 3.9687253483577933e-10 1.6515966507313351e-05 0.012791982149587496 -6.8409230576631467e-18 -3.6225653424545467e-17 -3.1437961316359141e-18 -0.18844303493102432 -61.153654769600031 -160.95484587600001 86.002782780800032 1645.6757988676138 0.0000000000000000 0.0000000000000000 0.0000000000000000 0.0000000000000000 3.3488276413744358 3.7249389521257692 1.3767717457216297 1.1776306327697075 3759.2649704986097 3612.9241886677182 1.1733695015662977 
-45.747254601414880 -169.81151793047007 68.365595046724877 -45.747254601414866 -169.81151793047005 68.365595046724849 -2437.0312431825832 1.3380654855579134e-13 -3.2099314194294688e-13 -4.4305392549008276e-14 601.45188612513437 1.4317232954752514e-09 4.3198489230178438e-10 1.6902958979159166e-05 0.012443853059121697 -7.2235134452965673e-18 1.0244096816196629e-17 -9.9998336573741417e-18 -0.25539385274209081 -44.232698507600013 -168.00161050399998 83.276389748800028 1737.4139093181343 0.0000000000000000 0.0000000000000000 0.0000000000000000 0.0000000000000000 3.3659122443327210 3.7605468145403886 1.3952656775230448 1.1804713476479509 6059.2796515833888 5903.3475886228407 1.1812071607218544 
-45.688477565394933 -187.83827293336702 96.198127339220179 -45.688477565394969 -187.83827293336705 96.198127339220235 -2089.0181980695015 3.3187568542320041e-14 -2.0838286242349049e-13 -2.5287933912450765e-13 1.2976854883892004e-27 1.4302284911948959e-09 5.1990522997868983e-10 1.3391951689811776e-05 0.012021555609679407 -1.8214654049490235e-19 1.4505618957849175e-19 -2.6034821992318252e-18 -4.5201871034895544e-29 -44.175503749389676 -185.65989863464350 108.01171823852533 1616.4576808433910 0.0000000000000000 0.0000000000000000 0.0000000000000000 0.0000000000000000 3.3622804989759665 3.7528455534561096 1.3911782066283391 1.1799153901000892 5518.3090354562719 5972.6057462501249 1.1794711594032259 
-90.040885828910717 -142.84750968921406 131.39065249464585 -90.040885828910675 -142.84750968921404 131.39065249464591 -141.83805360707856 1.9179776709286353e-15 -2.9275799319909892e-15 1.1940671900937996e-14 0.0000000000000000 2.5588972052403851e-09 3.0041946708081468e-10 8.9524989270728383e-06 -0.11557231541346880 5.0996787108247005e-18 -9.1890339928957986e-17 -4.0720591296379583e-17 0.0000000000000000 -87.333945182495100 -141.58874659118649 139.28801968872074 1877.7986991733408 0.0000000000000000 0.0000000000000000 0.0000000000000000 0.0000000000000000 3.3973149719817575 3.8270748310704867 1.4299891244786855 1.1919452067075953 2251.4173831344719 2130.5305447233313 1.1958038117652372 
-67.864681697152832 -165.34289131129054 131.39065249464585 -67.864681697152761 -165.34289131129046 131.39065249464593 -153.13527115715937 4.6141223158104983e-15 4.3167287091547008e-14 5.8193837325322980e-14 3.6578857210710606e-28 1.9945664009313191e-09 4.1017611529525756e-10 8.9524989270728383e-06 -0.046602939297282799 1.6453868870426903e-17 9.2526741152877286e-17 3.5948057759224453e-17 4.3986418700078981e-31 -65.754724465942374 -163.62432261291517 139.28801968872077 2018.1238718776010 0.0000000000000000 0.0000000000000000 0.0000000000000000 0.0000000000000000 3.3681778898472894 3.7663139047324599 1.3987003294696250 1.1929397287931112 2057.9199529046941 1865.8552831065904 1.1826246547583923 
-90.040885828910717 -165.34289131129054 113.79438991693303 -90.040885828910675 -165.34289131129054 113.79438991693311 -137.40029579256276 -4.8370379500628449e-14 2.7529525468900147e-14 3.3507416280257156e-15 0.0000000000000000 2.5588972052403847e-09 4.1017611529525761e-10 1.1172225306665950e-05 0.020572205912072764 -6.8140510369662622e-18 -1.7968011116039619e-17 -1.4939691180838502e-17 0.0000000000000000 -87.333945182495114 -163.62432261291505 123.64986896362312 1549.0027140339625 0.0000000000000000 0.0000000000000000 0.0000000000000000 0.0000000000000000 3.3580995090337682 3.7444383475784373 1.3872335846988237 1.1814854220258981 1684.8966228578595 2832.6037948677349 1.1778529959160733 
-90.040885828910717 -142.84750968921406 113.79438991693303 -90.040885828910675 -142.84750968921406 113.79438991693311 -214.83869683633361 -5.3417367373413412e-15 -1.4998280840160031e-14 2.7967656152713461e-14 0.0000000000000000 2.5588972052403851e-09 3.0041946708081468e-10 1.1172225306665949e-05 0.069768081041419114 -6.3729236975236923e-17 -1.3587785330505500e-16 1.6602471643818676e-16 0.0000000000000000 -87.333945182495086 -141.58874659118649 123.64986896362313 1389.1126189879024 0.0000000000000000 0.0000000000000000 0.0000000000000000 0.0000000000000000 3.3875464259035049 3.8061990021211578 1.4179878263691357 1.1930818997493069 2115.6728394438401 3182.8298839601448 1.1911123363708214 
-46.738884704180357 -110.94029037117723 29.625309416911364 -46.738884704180357 -110.94029037117723 29.625309416911364 -986.72083224392122 6.1808061021686676e-14 2.7911648316334385e-14 -8.3930810843647845e-14 -372.36893345104824 1.4569548900666973e-09 1.4477730125861401e-10 2.1789953216000413e-05 0.025002769875846712 2.7514310457987779e-18 -4.5981230669977662e-18 1.8720918943770637e-18 0.13994434265316921 -45.197633928000002 -110.33371083599998 48.847122559999995 1069.0094105005942 0.0000000000000000 0.0000000000000000 0.0000000000000000 0.0000000000000000 3.3644919895883567 3.7574472615009307 1.3935784478692812 1.1804713476479516 3808.8521952642454 3808.3797423588530 1.1804986986485824 
-58.994813448361690 -99.197820992276320 26.676026833200840 -58.994813448361654 -99.197820992276320 26.676026833200844 -609.12667759174690 1.8476418582244132e-15 1.1763716738755815e-14 -2.8742755987098472e-14 178.76809644399793 1.7688454034825440e-09 8.7492013634005161e-11 2.2161998153080731e-05 0.025081380495181844 -2.3381466729125168e-18 -6.1684114655458059e-19 4.6528257831335652e-18 -0.17726955270409631 -57.123633070400032 -98.831257531200038 46.226036100800002 1475.5774262919704 0.0000000000000000 0.0000000000000000 0.0000000000000000 0.0000000000000000 3.3643863086245607 3.7572691529019555 1.3935110166375611 1.1804713476479518 2830.7340839855669 2833.1574547120549 1.1804706245104197 
-62.094258566128943 -106.09452592183423 39.092611300844688 -62.094258566128936 -106.09452592183423 39.092611300844695 -528.34456551344988 -5.0509905524870802e-14 -1.1615931971524792e-15 3.0200963715671170e-14 -1071.7204157040901 1.8477198659994087e-09 1.2113487990461635e-10 2.0595675760404216e-05 0.026979249315015167 -2.4730069253362970e-18 1.0232187087714124e-17 -8.9295481833693121e-18 0.25923218526851255 -60.139641125599979 -105.58699381199996 57.260903223199996 1724.6135661994952 0.0000000000000000 0.0000000000000000 0.0000000000000000 0.0000000000000000 3.3641352406646465 3.7569650289979832 1.3934799312503332 1.1804713476479507 3135.7331764114056 3133.6655649313084 1.1804588458370584 
-20.233753502661475 -88.259030961653934 39.585650047219545 -20.233753502661475 -88.259030961653934 39.585650047219538 -604.33703887193144 5.8455811597594775e-15 -2.8568279465012462e-14 -7.2761621088125598e-14 -437.38421317166200 7.8246265022841034e-10 3.4124258974088655e-11 2.0533480103779311e-05 0.023853017046190968 -1.9339188562193604e-18 6.0933141004593762e-18 1.8114583324891666e-17 -0.22677354812652425 -19.406020858399991 -88.116056368799974 57.699076624800000 1439.6451283969650 0.0000000000000000 0.0000000000000000 0.0000000000000000 0.0000000000000000 3.3641681610856513 3.7568538984828090 1.3933206411266070 1.1804713476479516 2729.8712418394421 2747.0815640495448 1.1803922048128612 
-60.693444422997217 -180.61914037727934 63.278269608139709 -60.693444422997224 -180.61914037727928 63.278269608139695 -6568.3547606957673 1.0603872491064104e-14 -2.3302970234234774e-13 -2.5671937099553130e-13 -6560.9151994075946 1.8120686062772506e-09 4.8470139013545577e-10 1.7544712896722103e-05 0.023987530846277073 2.5016128731732952e-19 -6.9448469281102189e-20 3.3577079646557980e-19 0.097560208248950980 -58.776536899199989 -178.58832514800000 78.755181813599989 1584.4809985467919 0.0000000000000000 0.0000000000000000 0.0000000000000000 0.0000000000000000 3.3664758588913339 3.7616557756918847 1.3958135019201949 1.1804713476479518 13463.726879587899 13460.937017085786 1.1814495949124297 
-76.814256475844033 -187.10622450484468 55.931282442084978 -76.814256475844019 -187.10622450484468 55.931282442084978 -4938.6699264848066 4.9386529774206684e-13 -5.7739570863381173e-13 -4.3160662652201605e-14 -3987.0107277851571 2.2223104467755661e-09 5.1633963771280378e-10 1.8471517726936781e-05 0.019846893532790569 2.0889259634225691e-18 8.5477168146918038e-18 -1.2028696863457303e-19 0.098522150329712024 -74.463376691600018 -184.94281327599995 72.225767276240006 1182.3928641350060 0.0000000000000000 0.0000000000000000 0.0000000000000000 0.0000000000000000 3.3658930507896039 3.7604336130012190 1.3951664412580393 1.1804713476479511 10669.589223807156 10691.801176374331 1.1811735339018796 
-71.956892860935454 -214.30787839433708 72.096666659403496 -71.956892860935454 -214.30787839433700 72.096666659403482 -6454.0249051422907 -2.9781604214558834e-14 6.4277452015574055e-14 -4.4625110703075285e-13 -5941.3309682813624 2.0986953286339367e-09 6.4903571406205174e-10 1.6432293222123917e-05 0.024147969251965384 -1.1442534558632648e-18 6.4594812473609566e-19 -1.1204705485008366e-18 0.090098210753316574 -69.736773305200003 -211.58846536000007 86.592267764799999 1391.6778601551057 0.0000000000000000 0.0000000000000000 0.0000000000000000 0.0000000000000000 3.3629723444092816 3.7543739643529106 1.3920374365769492 1.1804713476479511 13635.161262045554 13552.309202093591 1.1798436452536707 
-89.506396284274530 -209.90330006120934 76.277804032368323 -89.506396284274530 -209.90330006120936 76.277804032368309 -3591.8691799912704 5.1866200938847489e-13 -2.6658953800932274e-13 -1.4970802035334080e-13 -3126.7221486148851 2.5452929763858374e-09 6.2755689533844351e-10 1.5904852766368549e-05 0.017041109493210565 -2.3426285023388290e-18 1.6390950137670063e-18 -6.4644263490129355e-19 0.024650638912479036 -86.813844096400004 -207.27391660800001 90.308128229600001 1955.0875990986240 0.0000000000000000 0.0000000000000000 0.0000000000000000 0.0000000000000000 3.3655669928248435 3.7598563002601453 1.3949380819294572 1.1804713476479514 7372.5972516150387 7383.6597170065224 1.1810793304665970 
-76.722009398522630 -215.32555792392142 87.922591271228328 -76.722009398522630 -215.32555792392139 87.922591271228328 -4307.2280100096832 -4.2560019677067678e-13 1.1590922903253552e-13 3.3684126905568901e-13 -5710.5531418003975 2.2199612148554593e-09 6.5400684867711344e-10 1.4435890740571718e-05 0.018040243418765884 5.1059288898236148e-19 5.4010213676923112e-20 9.7944889576118043e-19 0.026576493108110853 -74.373612905599998 -212.58534351999998 100.65708370800000 988.41240310934302 0.0000000000000000 0.0000000000000000 0.0000000000000000 0.0000000000000000 3.3631871684563706 3.7547424566932639 1.3921922319603193 1.1804713476479503 12131.027863705589 11823.900936300257 1.1799186880085430 
-67.864681697152832 -187.83827293336702 96.198127339220179 -67.864681697152761 -187.83827293336705 96.198127339220235 -1965.3779454197804 1.9894159878389689e-14 -1.4281181007331294e-13 6.5970221546834653e-15 4.3509168895418193e-27 1.9945664009313191e-09 5.1990522997868993e-10 1.3391951689811776e-05 0.012734402052008502 5.6260377809395457e-18 1.8101846759698412e-17 8.8131703642639303e-18 -2.5019388452511399e-28 -65.754724465942374 -185.65989863464350 108.01171823852535 1808.0980320372519 0.0000000000000000 0.0000000000000000 0.0000000000000000 0.0000000000000000 3.3661331130973156 3.7607317292643359 1.3951823027784567 1.1806530867629914 4952.6483431115930 4995.1857820093846 1.1811772313093845 
-86.061163965455307 -211.01268574049357 97.338165163360159 -86.061163965455307 -211.01268574049351 97.338165163360159 -2451.9993171296996 4.4090303195202487e-13 -2.9801077504231097e-13 -5.4016622714062837e-13 -2291.5855595155117 2.4576182200419798e-09 6.3297567187703407e-10 1.3248138643007223e-05 0.011170599196361241 -3.3478402446900735e-19 -1.9984743273529332e-18 -1.2643451125445744e-17 0.082950263126950238 -83.461357431600007 -208.36062644399999 109.02489266960001 1287.0831768928649 0.0000000000000000 0.0000000000000000 0.0000000000000000 0.0000000000000000 3.3651004155427167 3.7590575256388723 1.3946129841767456 1.1804713476479507 6787.8537977485230 6964.8967403518491 1.1809182853130762 
-42.999425301873934 -131.06418436847548 48.649897103511371 -42.999425301873927 -131.06418436847548 48.649897103511378 -458.52801838281277 1.3176225579638317e-14 -2.5159188891641853e-14 -1.6613001798065237e-15 -873.43031713239122 1.3617967864476552e-09 2.4293744793624223e-10 1.9390047050649173e-05 0.035632709320045870 3.0098071115665617e-17 -2.1723520713569798e-17 1.0822002650511656e-17 1.3233204082458134 -41.558840772800004 -130.04627243999997 65.754654395919971 2180.9238908936368 0.0000000000000000 0.0000000000000000 0.0000000000000000 0.0000000000000000 3.3661638011208086 3.7603880505631273 1.3947945077764650 1.1804713476479511 2941.5455461608649 2877.5986690742643 1.1810028598842968 
-23.709394765863465 -135.55481507613862 37.568048486688632 -23.709394765863465 -135.55481507613862 37.568048486688632 -681.62556177490637 -2.6281858173660417e-14 -6.0620049595828430e-14 9.8193672399610357e-14 -1182.2265297400847 8.7091112099813028e-10 2.6484747728261482e-10 2.0787995708815288e-05 0.023257407190793944 7.7390414762994822e-18 -3.6917635939342483e-19 -3.4039294911596891e-18 -0.12601202850111448 -22.788097858800000 -134.44511465599999 55.905993737599999 935.86986824075086 0.0000000000000000 0.0000000000000000 0.0000000000000000 0.0000000000000000 3.3631608772542743 3.7548235015051925 1.3923069235202052 1.1804713476479509 3249.9649377884734 3254.4489905841106 1.1799736659361157 
-11.621664609670614 -104.06855787904018 44.547353896556771 -11.621664609670610 -104.06855787904016 44.547353896556757 -687.06437070844504 4.9618343719576580e-14 -8.9644197234139905e-14 9.3916110247321638e-15 -549.29229589272416 5.6330440312279972e-10 1.1125167453940321e-10 1.9907573044264382e-05 0.022364439596662275 -4.9914266767293996e-18 5.5906273624896310e-18 -1.1363554074691056e-18 0.016971139555125577 -11.025769398400001 -103.60243655599999 62.108642139439993 1284.9349949311236 0.0000000000000000 0.0000000000000000 0.0000000000000000 0.0000000000000000 3.3638030740662774 3.7562484964603353 1.3930942706912042 1.1804713476479511 3182.5578600882127 3206.5889635507706 1.1802987799791747 
-30.087243386730954 -142.00586836536840 53.506986879876983 -30.087243386730954 -142.00586836536840 53.506986879876983 -625.44137873672094 7.5887426014705249e-15 5.6196494036859018e-14 -9.5037085019876536e-14 36.155726574891098 1.0332109612321005e-09 2.9631519460338035e-10 1.8777336805442246e-05 0.021912166327352503 -1.1815867579714920e-17 1.9158918534510783e-17 5.2129537237677259e-19 -0.46373450192558074 -28.994254794799993 -140.76430841599998 70.071247290159988 2176.9829965296321 0.0000000000000000 0.0000000000000000 0.0000000000000000 0.0000000000000000 3.3678314946646393 3.7643475472224091 1.3971084810101517 1.1804713476479509 3101.2950592723096 3092.6401769224149 1.1819519894802930 
-106.55797331759477 -196.40745126379457 80.477425860887791 -106.55797331759480 -196.40745126379460 80.477425860887806 -551.81685341555669 -8.8069984026952500e-14 4.5804377830453892e-14 5.8618048406475707e-14 -1142.1238349893908 2.9792196487576912e-09 5.6170734730187622e-10 1.5375080526069951e-05 0.0082144197139963314 2.0031277477050797e-18 -1.3749150850869075e-18 3.2113720471448329e-18 0.052339959845776107 -103.40639267600000 -194.05392295999994 94.040416199999996 2662.2783756828549 0.0000000000000000 0.0000000000000000 0.0000000000000000 0.0000000000000000 3.3638406063892110 3.7560781916759796 1.3928528914465763 1.1804713476479507 2515.1012217666612 2505.1661420709747 1.1801933587556397 
-85.081946833463036 -163.99234588588055 62.205616502390882 -85.081946833463022 -163.99234588588061 62.205616502390896 -647.69615831148508 4.1141324191491570e-14 4.5245170865506033e-14 3.3012555818584967e-14 -1210.6824610388283 2.4326954894959836e-09 4.0359693365132898e-10 1.7680025511168651e-05 0.011952323471430182 2.1053800359798154e-18 5.0404948043157474e-18 -2.2955159800462230e-18 -0.39375776706160598 -82.508500824799995 -162.30138233600007 77.801893530400037 2229.3857910936085 0.0000000000000000 0.0000000000000000 0.0000000000000000 0.0000000000000000 3.3671695641187132 3.7627685314950265 1.3961775308175646 1.1804713476479514 2688.8219946867025 2737.7226562430146 1.1815921304833494 
-29.056331673840688 -125.97597347265673 118.19345556136123 -29.056331673840674 -125.97597347265673 118.19345556136116 -94.178935424928042 -3.2516141090349247e-14 -2.8937333637157073e-14 2.8109495702417163e-14 -4.8512055897930877e-28 1.0069760580933007e-09 2.1812307515745036e-10 1.0617293725090349e-05 -0.045699402842342751 3.4657409552786399e-17 -8.9836742930732060e-17 1.1991611858821522e-16 2.1314952031516429e-29 -27.991095225219734 -125.06206457489009 127.55940664489751 1124.7619503421174 0.0000000000000000 0.0000000000000000 0.0000000000000000 0.0000000000000000 3.3419320643564743 3.7060613289394131 1.3648124745622567 1.1802735283504631 913.51443030191888 934.70522205006625 1.1686020585502372 