# For a description of the Tecplot format see the Tecplot User's guide.
#
Variables=x,y,z,s_u,s_v,s_w,s_p,mono_f_vel_u,mono_f_vel_v,mono_f_vel_w,const,u_nu,v_nu,w_nu,p_nu,x_nu,y_nu,z_nu,const,u_ref,v_ref,w_ref,vol_ref,x_ref,y_ref,z_ref,const,I1,I2,I3,J,p1,p2,p3
Zone f=fepoint, n=356, e=1130, et=brick, c=black
-67.3263 -97.7706 82.3583 -67.326317601439811 -97.770637581892558 82.358333265533886 -1681.2437887038147 -5.5125483856272427e-14 1.7722135979837198e-14 5.1750037098865505e-13 9.0644892113756661e-28 1.7455076550820792e-09 7.1049610639306593e-11 1.3120184917170263e-05 1.4326302595017821 4.5975565872047151e-17 1.6996928137529115e-17 -2.3528809092707572e-16 -6.5002243754561419e-29 -65.754724465942431 -97.517594547729473 92.373562431030237 2074.8615187338191 0.0000000000000000 0.0000000000000000 0.0000000000000000 0.0000000000000000 3.2631646096245719 3.5435099241420995 1.2807279963226637 1.1308781547798574 3987.2908987603919 3410.6725888826618 1.1316731335726866 
-77.524600324179374 -131.32767037932373 67.640938049384900 -77.524600324179360 -131.32767037932373 67.640938049384900 -583.03044930141687 -9.6169782120920194e-14 -5.3488302580466058e-15 1.4608962810201089e-14 180.16664597764216 1.9741993873001462e-09 2.1548696160778036e-10 1.4729299270044292e-05 0.067239338572466278 8.0773598778032003e-18 1.2316140381816326e-16 -7.7662272457095444e-17 -2.7412460051236400 -75.747104543999981 -130.56019973999997 78.884476808000016 2128.8259272129790 0.0000000000000000 0.0000000000000000 0.0000000000000000 0.0000000000000000 3.2631485420010673 3.5434494827421918 1.2806339569090708 1.1308781547798572 1697.2538562828749 2154.0954389030053 1.1316004473930352 
-64.945805498480937 -122.42562083683795 59.301046131994710 -64.945805498480937 -122.42562083683796 59.301046131994717 -47.564360825476399 5.9584897186924421e-14 5.2766858980081744e-14 -4.4461056939314155e-14 1055.3226365624662 1.6921250234336325e-09 1.7716339506534950e-10 1.5641134524457811e-05 0.0068927382931674493 -2.1337506931492131e-18 -7.7941903876196722e-17 5.6979458696548439e-17 0.56204283365036189 -63.422274742800013 -121.79461816400000 71.240629883439979 1237.7701333319521 0.0000000000000000 0.0000000000000000 0.0000000000000000 0.0000000000000000 3.2654464567130370 3.5445858641950023 1.2792869516953449 1.1308781547798570 317.84437462572532 339.30935284351943 1.1310682914167212 
-57.526044400791911 -132.87067196308371 65.193625391277422 -57.526044400791903 -132.87067196308368 65.193625391277436 -399.30019581784995 1.0258637156672183e-13 -5.2405747174614308e-14 -2.2431442765587913e-14 154.97670432540235 1.5257463348294920e-09 2.2211010808348419e-10 1.4996874195816190e-05 0.047861565870795313 -7.4929777947217889e-17 1.5294712131627551e-16 -9.0110843691192707e-17 -2.6783204124563724 -56.152318124399997 -132.07954718800002 76.641416164000006 2090.5778096190215 0.0000000000000000 0.0000000000000000 0.0000000000000000 0.0000000000000000 3.2567873306140167 3.5320734239402425 1.2757462134985291 1.1308781547798574 1101.3713362285707 1717.7188920020562 1.1294551591568796 
-125.64694847620292 -110.84081146671264 78.903889332388374 -125.64694847620292 -110.84081146671267 78.903889332388388 -1275.0347514300406 -8.6161224104368282e-15 -1.3229003467024756e-14 5.3560412776389597e-14 -776.65888920517114 3.0533013062328260e-09 1.2730594356469283e-10 1.3497873716517003e-05 0.046066142563369092 -1.3433470925201420e-19 6.7102809608074547e-18 -1.8719377867189850e-17 -0.070260207543266132 -122.89786571200003 -110.38740333199999 89.207425400000020 2092.2379289329847 0.0000000000000000 0.0000000000000000 0.0000000000000000 0.0000000000000000 3.2644565434053980 3.5441616455222436 1.2799487657095925 1.1308781547798565 3271.5073863424559 3375.5716624280676 1.1313587435244499 
-125.51625974752979 -129.23957531626436 83.567640210028316 -125.51625974752982 -129.23957531626436 83.567640210028316 -1288.2528471198657 4.5720219832184808e-15 -3.3511286579158607e-14 -1.6168736807317902e-14 -2124.0430273133034 3.0503752024291235e-09 2.0649748577739044e-10 1.2987966332644872e-05 0.029350609189545879 1.4440831040054264e-18 -2.9070130478474971e-17 1.4842010362750603e-17 -0.14619567011297704 -122.76981557999994 -128.50411506799998 93.481940963999989 2295.0048277193882 0.0000000000000000 0.0000000000000000 0.0000000000000000 0.0000000000000000 3.2652930856859546 3.5445300622214191 1.2793839190470648 1.1308781547798574 4447.0402103936794 4302.0452329776535 1.1311047141204198 
-89.350199007538407 -120.14927700722474 99.420491954605737 -89.350199007538365 -120.14927700722468 99.420491954605794 -860.53659441689774 1.0558335345752130e-13 1.7719465473257535e-13 -1.3739012043088066e-13 1.7021839615506187e-28 2.2393717158397664e-09 1.6736323438237832e-10 1.1254707768415528e-05 0.26098450143983942 -4.7486829081953698e-17 -1.0184666436136331e-17 -1.5669350128922179e-17 -1.3526648465631843e-29 -87.333945182495114 -119.55317056945796 108.01171823852533 1853.2119812635015 0.0000000000000000 0.0000000000000000 0.0000000000000000 0.0000000000000000 3.2595154265916433 3.5379665244390410 1.2790511887375053 1.1308781547798568 2786.0530146109245 3034.3904516213029 1.1309474033973101 
-124.62526846525500 -119.53599622254580 98.357733663642009 -124.62526846525499 -119.53599622254580 98.357733663641994 -528.90271537590354 -1.7755546487085456e-14 -2.5968720106375229e-14 -1.7959239665104463e-13 -501.87702495046426 3.0303929643427101e-09 1.6472045949456057e-10 1.1370903575169677e-05 0.015626515793536654 9.6344528498537513e-19 1.0318605371117464e-17 9.0695682062114747e-18 0.16897479849967834 -121.89681335200000 -118.94929134799999 107.03765745040002 1571.7251237143605 0.0000000000000000 0.0000000000000000 0.0000000000000000 0.0000000000000000 3.2649348414954211 3.5438662550099673 1.2790217077050636 1.1308781547798561 2070.0850760391204 2077.5207523814975 1.1309570571914855 
-45.302436195341265 -164.90655585788915 116.48264509847952 -45.302436195341244 -164.90655585788912 116.48264509847951 -108.00348682202326 1.8808881346948371e-15 2.7990229402503105e-14 -2.0843555748344883e-14 0.0000000000000000 1.2516432612574848e-09 3.5999270231457109e-10 9.3892312271748324e-06 0.062013869862584219 -1.9653096511739206e-18 -1.8684528553420054e-17 2.2579755549426496e-17 0.0000000000000000 -44.175503749389662 -163.62432261291502 123.64986896362305 1288.7765825848380 0.0000000000000000 0.0000000000000000 0.0000000000000000 0.0000000000000000 3.2915624109191275 3.6064098060823238 1.3154007313152936 1.1412024802551208 1386.4953806823189 2187.9405065864926 1.1469040757326983 
-16.013825192327147 -144.83937280595097 130.02609682857181 -16.013825192327147 -144.83937280595094 130.02609682857181 -178.51994530829359 -1.2740383962905543e-15 -2.8143543609396015e-14 -2.7001900436977167e-14 344.58206048631320 5.9486779391271238e-10 2.7363689092396731e-10 7.9084690263186985e-06 0.037337569072442914 -7.6652028835870165e-18 5.8743502011659001e-17 -2.1803817498680033e-18 -0.13643433421567436 -15.478227839600008 -143.86476845600004 136.06298808800005 1207.7015194609139 0.0000000000000000 0.0000000000000000 0.0000000000000000 0.0000000000000000 3.2619244570567640 3.5384687898712741 1.2767590913568800 1.1335557039783448 1945.5761262944104 1803.9002996990703 1.1299139298447773 
-45.302436195341265 -164.90655585788915 133.54479824235327 -45.302436195341237 -164.90655585788923 133.54479824235327 -291.12811930639350 2.1523135187688248e-14 -7.3782849644073362e-15 -1.1307635322189263e-15 0.0000000000000000 1.2516432612574846e-09 3.5999270231457103e-10 7.5237546965922775e-06 -0.018148273338280466 1.7456235835307093e-18 1.8917406644764399e-17 -4.7527377043109126e-18 0.0000000000000000 -44.175503749389669 -163.62432261291511 139.28801968872074 2260.0113226803110 0.0000000000000000 0.0000000000000000 0.0000000000000000 0.0000000000000000 3.2605817889471078 3.5358775073585180 1.2755279945260207 1.1351960828556915 1895.7035482403739 1748.9897592312266 1.1294676581187182 
-6.2197285346502351 -162.70724725602420 123.87514824912476 -6.2197285346502342 -162.70724725602423 123.87514824912476 -685.93176145932603 3.6235261690894712e-14 -5.0746944698694794e-15 5.0371694166668918e-14 -1001.1330377365997 3.7524330864791006e-10 3.5053937530449280e-10 8.5809779442058698e-06 0.0098574808153974094 1.7278249133348281e-18 -4.2074533986710083e-18 1.0600845370891434e-18 -0.070015788210365110 -5.8818733370400009 -161.45872929999999 130.42539591680000 1840.5999298976626 0.0000000000000000 0.0000000000000000 0.0000000000000000 0.0000000000000000 3.2603676261061385 3.5351840286800216 1.2750362630166738 1.1308781547798570 2605.0542035067310 2300.6281462474353 1.1291765380805963 
-10.198861639107221 -107.51133702494808 181.22527458461704 -10.198861639107221 -107.51133702494806 181.22527458461701 -280.76984213142015 1.9700162918737094e-15 1.5650109641022327e-14 -2.9257719497067755e-15 -286.89041733726179 4.6447154455897532e-10 1.1296674706784415e-10 2.3106488491464461e-06 0.0013126064131203717 1.3209150593917447e-19 5.1088443284667444e-18 -4.6223983818178883e-18 -0.10515098719835628 -9.7806680107999995 -107.10896956400003 182.98909712000000 1021.2952016557671 0.0000000000000000 0.0000000000000000 0.0000000000000000 0.0000000000000000 3.2638129069347417 3.5428296120994398 1.2792619005126855 1.1308781547798570 1750.8378391719775 1737.2790668808016 1.1310448255093581 
-18.144379833339137 -109.06339490121127 192.57755207099177 -18.144379833339141 -109.06339490121127 192.57755207099174 -314.95007049091384 -2.5939779467350770e-14 3.0415408808573761e-14 1.0992216033114009e-14 -389.12925722744063 6.4264446542061659e-10 1.1964584878398909e-10 1.0694568928215631e-06 0.0011897669217095744 1.1201141111571010e-18 3.7824991466545118e-18 -5.1264958785436240e-18 -0.052788166338978024 -17.565766725200003 -108.63723447200002 193.39391677600000 1230.2822850381203 0.0000000000000000 0.0000000000000000 0.0000000000000000 0.0000000000000000 3.2638548472249918 3.5428330758648547 1.2792197102582725 1.1308781547798579 1941.3172237080657 1930.0066788652935 1.1310192586307759 
-45.302436195341265 -120.14927700722474 167.66910453010087 -45.302436195341230 -120.14927700722471 167.66910453010118 -469.57303636949041 -1.4739752240477506e-14 2.1804822559157972e-14 2.9266317155143316e-14 0.0000000000000000 1.2516432612574848e-09 1.6736323438237830e-10 3.7928016034527445e-06 0.054747348559247122 4.8107128377804707e-18 -2.6053097401671837e-18 2.3157730120672073e-17 0.0000000000000000 -44.175503749389591 -119.55317056945772 170.56432113891603 1872.3464537223574 0.0000000000000000 0.0000000000000000 0.0000000000000000 0.0000000000000000 3.2615136513027281 3.5386820923731435 1.2774548198737261 1.1308781547798574 2230.1504812086901 2268.4000984621821 1.1302853558411667 
-9.7407849796532009 -125.06862830685806 187.63582880539960 -9.7407849796532009 -125.06862830685806 187.63582880539960 -389.99557166801605 1.7699045697048888e-14 -1.0489428915860258e-13 -4.8550703467215510e-14 -455.86702898595598 4.5419942806823594e-10 1.8853585359579481e-10 1.6097561577055333e-06 0.0013298019313276624 2.7801103488519813e-18 -3.3080668271447707e-19 -3.2225174977707707e-18 0.00056548484342614565 -9.3318398883999993 -124.39710846400000 188.86462832000004 1016.3527334425750 0.0000000000000000 0.0000000000000000 0.0000000000000000 0.0000000000000000 3.2639345443661485 3.5429494136011281 1.2792535260442843 1.1308781547798581 2323.7344227133835 2318.6486464819923 1.1310287104002335 
-45.302436195341265 -164.90655585788915 99.420491954605737 -45.302436195341244 -164.90655585788912 99.420491954605779 -388.05752966954520 -2.2230386328345025e-14 -2.5656581908052561e-14 1.5831486602102394e-14 6.5614557545725238e-27 1.2516432612574846e-09 3.5999270231457098e-10 1.1254707768415528e-05 0.0037915953238203464 1.2993685656910129e-18 1.9536111503086571e-17 1.1877023222944150e-17 -4.8821518543611512e-28 -44.175503749389662 -163.62432261291499 108.01171823852535 1450.3671205666894 0.0000000000000000 0.0000000000000000 0.0000000000000000 0.0000000000000000 3.2684201828010249 3.5521453620495866 1.2839662416707815 1.1352196125036094 495.67413228842821 2027.4098311381435 1.1330981831959084 
-62.630438419124928 -162.19551906489460 75.407433510893924 -62.630438419124928 -162.19551906489460 75.407433510893938 -2170.2175044497230 -9.6250240018889004e-14 -2.8468455230631228e-13 -6.0407939042367072e-14 809.40308363039549 1.6402047775532225e-09 3.4832692286101974e-10 1.3880155844248069e-05 0.0078051142847348123 3.1099228297199417e-19 -1.2354530576639339e-17 -1.3940572423495811e-18 -0.0095244076892810354 -61.153654769600031 -160.95484587600001 86.002782780800032 1645.6757988676138 0.0000000000000000 0.0000000000000000 0.0000000000000000 0.0000000000000000 3.2363431779378771 3.4860618509747003 1.2499596027402806 1.1253504459949868 4955.5974157912124 4778.9406899126579 1.1180418986470033 
-45.360809506797736 -169.35199205973248 72.432776452005399 -45.360809506797743 -169.35199205973248 72.432776452005413 -4498.6065505441538 1.4605325960915740e-13 -5.3503353159832332e-13 -8.3653632225846186e-14 -753.99762041007909 1.2529497717128633e-09 3.7912717409938073e-10 1.4205387540044967e-05 0.010010728868499751 -2.1594250358924166e-18 3.0265146518035330e-18 -2.3205992367778663e-18 -0.050907423614504170 -44.232698507600013 -168.00161050399998 83.276389748800028 1737.4139093181343 0.0000000000000000 0.0000000000000000 0.0000000000000000 0.0000000000000000 3.2662805485576745 3.5480260576368745 1.2819974067170392 1.1308781547798568 9002.4986001340567 8718.4837140949076 1.1322566287824236 
-45.302436195341265 -187.28519528322133 99.420491954605737 -45.302436195341230 -187.28519528322141 99.420491954605836 -4102.5466466731868 2.6575657665141254e-14 -2.8327945142189032e-13 -3.5909261705098948e-13 6.8346929302109348e-28 1.2516432612574846e-09 4.5632142509077777e-10 1.1254707768415528e-05 0.0095138068970474707 -5.9531535293937038e-19 7.4284794057848443e-19 -7.8775541542539971e-19 -5.4017441600185999e-29 -44.175503749389676 -185.65989863464350 108.01171823852533 1616.4576808433910 0.0000000000000000 0.0000000000000000 0.0000000000000000 0.0000000000000000 3.2582023953878960 3.5311038804647881 1.2731337027610723 1.1297579916379870 8683.9229843026878 9089.6487963980344 1.1283254520301089 
-89.350199007538407 -142.52791643255696 133.54479824235327 -89.350199007538365 -142.52791643255696 133.54479824235329 -402.32280803656982 1.0275850675074150e-14 -4.3999690731586840e-15 1.2985358276898927e-14 0.0000000000000000 2.2393717158397664e-09 2.6369240124779481e-10 7.5237546965922775e-06 -0.024955139730616128 1.3195565135811614e-18 -2.2292585158808856e-17 -6.2803848790442075e-18 0.0000000000000000 -87.333945182495100 -141.58874659118649 139.28801968872074 1877.7986991733408 0.0000000000000000 0.0000000000000000 0.0000000000000000 0.0000000000000000 3.2847188512040226 3.5859081624670033 1.3012204893384169 1.1384726342714737 2225.2390107397373 2740.1836212674984 1.1407437509195753 
-67.326317601439840 -164.90655585788915 133.54479824235327 -67.326317601439797 -164.90655585788929 133.54479824235321 -367.09326515901529 -4.1545143062353378e-15 5.0706612287083507e-14 6.5524396761877885e-14 2.9679928594687302e-28 1.7455076550820792e-09 3.5999270231457103e-10 7.5237546965922758e-06 -0.0045954498971049829 5.3920371739302656e-18 2.1212449866491048e-17 1.4917261838631855e-17 -1.9027738148139302e-29 -65.754724465942374 -163.62432261291517 139.28801968872077 2018.1238718776010 0.0000000000000000 0.0000000000000000 0.0000000000000000 0.0000000000000000 3.2620569678599658 3.5394205081631021 1.2775676390601733 1.1390864144881325 1900.4751441919784 1706.1106057292341 1.1303281962921539 
-89.350199007538407 -164.90655585788915 116.48264509847952 -89.350199007538365 -164.90655585788917 116.48264509847958 -472.36762800636552 -5.7660655071886363e-14 1.1719987952166760e-14 1.5166828867465079e-14 0.0000000000000000 2.2393717158397664e-09 3.5999270231457098e-10 9.3892312271748324e-06 0.0031319486474890930 -2.3036116706172312e-20 -5.7125515103761877e-18 -7.4186916596570910e-18 0.0000000000000000 -87.333945182495114 -163.62432261291505 123.64986896362312 1549.0027140339625 0.0000000000000000 0.0000000000000000 0.0000000000000000 0.0000000000000000 3.2641795606949229 3.5440376894321131 1.2802365973466368 1.1327386123380356 1672.0444422534272 2521.9471925507837 1.1314740830418908 
-89.350199007538407 -142.52791643255696 116.48264509847952 -89.350199007538365 -142.52791643255694 116.48264509847958 -364.35721629240999 -1.8728637866447346e-14 -1.4622906493719868e-14 4.7232886205954526e-14 0.0000000000000000 2.2393717158397668e-09 2.6369240124779481e-10 9.3892312271748324e-06 0.048484204280162216 -2.4539001713612181e-17 -3.3966035265468396e-17 3.7389039025187973e-17 0.0000000000000000 -87.333945182495086 -141.58874659118649 123.64986896362313 1389.1126189879024 0.0000000000000000 0.0000000000000000 0.0000000000000000 0.0000000000000000 3.2784332927499369 3.5723454123824321 1.2935633842448271 1.1398732654335439 1814.5959720292235 3742.5976627835803 1.1375325814543118 
-46.345628353714304 -110.78628305290374 34.868396895036653 -46.345628353714304 -110.78628305290376 34.868396895036653 -2483.7702063083475 9.9826642486799767e-14 2.6562102712650151e-14 -1.2091160617558692e-13 -2049.7114779906879 1.2750318856280531e-09 1.2705858587480634e-10 1.8312458212932370e-05 0.011147153735882280 4.8219621900119874e-19 -1.1757660796834274e-18 8.4492027596737551e-19 0.030155098919292630 -45.197633928000002 -110.33371083599998 48.847122559999995 1069.0094105005942 0.0000000000000000 0.0000000000000000 0.0000000000000000 0.0000000000000000 3.2635065664188923 3.5421921955028703 1.2789316909947226 1.1308781547798570 6128.7941538367613 6126.6273969064987 1.1308982932339777 
-58.517374229596420 -99.104752478844006 32.008635574381856 -58.517374229596435 -99.104752478844006 32.008635574381856 -1886.0324163774062 1.8213017387015133e-14 1.5057144044072319e-14 -5.6733102944767435e-14 -661.61195149681430 1.5479756643177467e-09 7.6791906167272828e-11 1.8625127875537828e-05 0.010387298894377313 -6.2899298610747559e-19 -1.1930184973748733e-19 1.1853646806440596e-18 -0.042913375238177613 -57.123633070400032 -98.831257531200038 46.226036100800002 1475.5774262919704 0.0000000000000000 0.0000000000000000 0.0000000000000000 0.0000000000000000 3.2634355209651513 3.5420694826849504 1.2788821387306681 1.1308781547798572 4445.7302690779215 4443.9940507322717 1.1308766116829547 
-61.595530044398899 -105.96566621813452 44.048332343803466 -61.595530044398885 -105.96566621813454 44.048332343803473 -1351.2757589570761 -1.9694869119219902e-14 5.1567618873492347e-14 -3.9982647802595422e-14 -838.33671672898026 1.6170033367846059e-09 1.0632228431006752e-10 1.7308777490399052e-05 0.0095927671977665673 2.1056329867528407e-19 2.9811868509705157e-18 -3.1325423246209672e-18 0.10443930519164991 -60.139641125599979 -105.58699381199996 57.260903223199996 1724.6135661994952 0.0000000000000000 0.0000000000000000 0.0000000000000000 0.0000000000000000 3.2632926553846060 3.5419048680954646 1.2788700470594632 1.1308781547798570 4033.2764843859045 4044.8224439899864 1.1308723429345942 
-20.022554180737632 -88.222730472847886 44.526405602790078 -20.022554180737636 -88.222730472847857 44.526405602790078 -1763.2239101639145 1.0325433604029050e-15 -4.1306814943956786e-14 -1.4636718579471131e-13 -1670.6613935241610 6.8476027625941082e-10 2.9948710178473448e-11 1.7256507742757776e-05 0.0096707547272857543 -4.3910313078683521e-19 1.4277053482957535e-18 3.9207095659239659e-18 -0.046671419702702818 -19.406020858399991 -88.116056368799974 57.699076624800000 1439.6451283969650 0.0000000000000000 0.0000000000000000 0.0000000000000000 0.0000000000000000 3.2632770642652340 3.5417662161179497 1.2787402383150448 1.1308781547798572 4387.1892949778330 4451.3356136738885 1.1308151176705172 
-60.204337738582346 -180.10352719016632 67.499869515517346 -60.204337738582346 -180.10352719016632 67.499869515517361 -10042.072704322654 2.7077996936799605e-14 -2.9459884024167682e-13 -3.1348516880460765e-13 -11080.970744787095 1.5858056257034292e-09 4.2541992151257091e-10 1.4744722875548181e-05 0.019998862154618994 -1.6035404010850107e-19 7.8613011078030352e-19 9.1732178967680895e-19 0.039404042408349313 -58.776536899199989 -178.58832514800000 78.755181813599989 1584.4809985467919 0.0000000000000000 0.0000000000000000 0.0000000000000000 0.0000000000000000 3.2679760463399599 3.5515697904898427 1.2838517014536810 1.1308781547798561 19844.591974864721 19848.716063966178 1.1330862011783420 
-76.214420019230914 -186.55694589856964 60.375889657881316 -76.214420019230928 -186.55694589856964 60.375889657881316 -7589.4411572549789 6.7766057315797115e-13 -6.0017635354754479e-13 -8.2174407624389342e-15 -7177.5715897919481 1.9448191113102808e-09 4.5318659935844607e-10 1.5523617388879529e-05 0.015806079596138087 -1.0802886623054584e-18 3.3454235419395073e-18 -1.9897436990372853e-20 0.031940198759159308 -74.463376691600018 -184.94281327599995 72.225767276240006 1182.3928641350060 0.0000000000000000 0.0000000000000000 0.0000000000000000 0.0000000000000000 3.2657520536592339 3.5468346748278416 1.2813297474052305 1.1308781547798561 14853.414229547518 14861.732927949515 1.1319608286671523 
-71.390420403902482 -213.61743388638999 76.050596711570847 -71.390420403902468 -213.61743388638996 76.050596711570847 -10108.746453837286 1.1883767512856808e-14 7.3178043572114419e-14 -4.2429643880431694e-13 -10330.083674849549 1.8366416443260647e-09 5.6964144512505754e-10 1.3809836122646857e-05 0.020126961646230200 -2.3282564268055322e-19 1.4295337902121364e-19 -1.5354837158433252e-19 0.043029684374570783 -69.736773305200003 -211.58846536000007 86.592267764799999 1391.6778601551057 0.0000000000000000 0.0000000000000000 0.0000000000000000 0.0000000000000000 3.2613787783132788 3.5378931375998066 1.2767663823478339 1.1308781547798565 20841.505616447474 20873.776875918546 1.1299404853734842 
-88.819380736118845 -209.23571358514545 80.104821627687812 -88.819380736118859 -209.23571358514542 80.104821627687798 -5971.7476695144669 6.2508336600344687e-13 -3.2019779912462161e-13 -2.1642980983314263e-13 -6008.5510432430601 2.2274754540863029e-09 5.5080495720005729e-10 1.3366570762229912e-05 0.013526628647513486 -1.8965373674383537e-18 1.1025232868375329e-18 1.5564663449144725e-19 0.010813034117942089 -86.813844096400004 -207.27391660800001 90.308128229600001 1955.0875990986240 0.0000000000000000 0.0000000000000000 0.0000000000000000 0.0000000000000000 3.2665922354678192 3.5487529505118025 1.2824237521296173 1.1308781547798563 11455.229659136790 11514.750816607371 1.1324558844102395 
-76.122806563703762 -214.62983205885575 91.396147971550619 -76.122806563703762 -214.62983205885575 91.396147971550619 -7144.1501529273501 -2.4644011599760395e-13 8.6183743208584510e-14 1.8787059954471998e-13 -8889.4826732593829 1.9427574271535519e-09 5.7402105291259896e-10 1.2132042851220605e-05 0.015119151403351641 3.3073217574455626e-19 -6.6749766283253576e-20 4.1494786596533261e-19 0.018163660980875341 -74.373612905599998 -212.58534351999998 100.65708370800000 988.41240310934302 0.0000000000000000 0.0000000000000000 0.0000000000000000 0.0000000000000000 3.2626360582452114 3.5405104777807006 1.2781309987790841 1.1308781547798581 17359.432677968271 17373.016846923761 1.1305560755081121 
-67.326317601439840 -187.28519528322133 99.420491954605737 -67.326317601439797 -187.28519528322141 99.420491954605836 -3597.9290756144787 9.4438086585004445e-14 -2.6657061102220195e-13 -1.1539344333386759e-13 1.5695303788460020e-27 1.7455076550820796e-09 4.5632142509077767e-10 1.1254707768415528e-05 0.0094758966552268755 9.7304005543158031e-19 5.6804448610758428e-18 2.1814446618298301e-18 -1.5104239985814874e-28 -65.754724465942374 -185.65989863464350 108.01171823852535 1808.0980320372519 0.0000000000000000 0.0000000000000000 0.0000000000000000 0.0000000000000000 3.2627466762358934 3.5401716122535047 1.2776370134413360 1.1304353737873858 7196.9759424970498 7063.2857209469021 1.1303007514665655 
-85.397812844909225 -210.33934198840686 100.52592555787113 -85.397812844909240 -210.33934198840686 100.52592555787113 -3926.5720060506865 5.5479429461158965e-13 -3.7094772104619234e-13 -5.3416646099860298e-13 -3341.3405240075072 2.1507463865422238e-09 5.5554383315836731e-10 1.1133846086863740e-05 0.0091447340220838225 -6.9862643239197684e-19 -2.9035297804640458e-19 -3.1825743479598441e-18 0.032871608295622058 -83.461357431600007 -208.36062644399999 109.02489266960001 1287.0831768928649 0.0000000000000000 0.0000000000000000 0.0000000000000000 0.0000000000000000 3.2653894469326450 3.5463760157817097 1.2812514239856281 1.1308781547798570 8241.7335619168789 8436.9074641478219 1.1319142907016244 
-42.631854350282609 -130.80574194295366 53.315520377892526 -42.631854350282602 -130.80574194295372 53.315520377892533 -1243.9158484318559 5.2023585299553495e-14 -4.6240232119344447e-14 -2.1790396190248804e-14 -1872.7785238817453 1.1917522801940807e-09 2.1321544529939729e-10 1.6295557074386124e-05 0.011371408067709381 6.9949854940506948e-18 -6.0239149534971661e-18 4.4044398970570207e-18 0.36415404647690591 -41.558840772800004 -130.04627243999997 65.754654395919971 2180.9238908936368 0.0000000000000000 0.0000000000000000 0.0000000000000000 0.0000000000000000 3.2646408712376380 3.5442103512339806 1.2797924539032446 1.1308781547798565 3973.6379088820836 3631.1375639037065 1.1312719363971107 
-23.474322144998133 -135.27306804070233 42.570045457727289 -23.474322144998130 -135.27306804070233 42.570045457727296 -2166.7083144737767 -1.0747017075872093e-14 -5.0872449519795883e-14 8.1556580961492656e-14 -2692.4475930675835 7.6216230548986630e-10 2.3244584035353455e-10 1.7470404774400095e-05 0.010363109212512555 2.1451387205197520e-18 5.6910028447691849e-20 -1.3624931356640252e-18 -0.037281977081026575 -22.788097858800000 -134.44511465599999 55.905993737599999 935.86986824075086 0.0000000000000000 0.0000000000000000 0.0000000000000000 0.0000000000000000 3.2625682284142146 3.5403529166223602 1.2780401087639353 1.1308781547798572 5431.5085881336227 5447.1376063055786 1.1305123397987813 
-11.469619543633250 -103.95021215389050 49.337504014060983 -11.469619543633254 -103.95021215389055 49.337504014060983 -1941.1626015307038 4.8480295865494838e-14 -1.1970180028103155e-13 -7.0305082156173868e-14 -1514.2207537947213 4.9296722259839498e-10 9.7636343454610142e-11 1.6730490234095896e-05 0.0095490825566329086 -1.4628417142163394e-18 1.5157760166179609e-18 -7.4757897083370606e-19 0.025091364909897176 -11.025769398400001 -103.60243655599999 62.108642139439993 1284.9349949311236 0.0000000000000000 0.0000000000000000 0.0000000000000000 0.0000000000000000 3.2630469363841073 3.5413852595052422 1.2785956164476213 1.1308781547798563 4971.5241838767151 5115.1346042678051 1.1307529537063774 
-29.808362940143912 -141.69064289667182 58.025180127051911 -29.808362940143915 -141.69064289667179 58.025180127051904 -1542.8117926708760 3.1230197383381159e-15 7.2405420801608426e-14 -1.2955346774667735e-13 -1039.7176440688484 9.0419829956722708e-10 2.6008639686381230e-10 1.5780630281625463e-05 0.0083221012289657181 -3.3155286780274564e-18 4.4712741890649240e-18 1.4359302079520799e-18 -0.10565443172484491 -28.994254794799993 -140.76430841599998 70.071247290159988 2176.9829965296321 0.0000000000000000 0.0000000000000000 0.0000000000000000 0.0000000000000000 3.2658666356246155 3.5469966550946235 1.2813619639780940 1.1308781547798568 4397.7292994205645 4438.2964801766284 1.1319469729262892 
-105.75383480849078 -195.80990294320668 84.176969930095566 -105.75383480849078 -195.80990294320665 84.176969930095552 -1627.2466947056550 -7.7718665679791674e-14 2.5684113149858444e-14 -2.8936171899322759e-14 -2527.7023432421379 2.6072145831168565e-09 4.9299830884308438e-10 1.2921345764027592e-05 0.0060016855315987248 4.2213229419658804e-19 -1.7030596130175747e-19 7.7530661071126504e-19 0.021943510218427217 -103.40639267600000 -194.05392295999994 94.040416199999996 2662.2783756828549 0.0000000000000000 0.0000000000000000 0.0000000000000000 0.0000000000000000 3.2628394964083798 3.5408677060999052 1.2782732439554625 1.1308781547798570 3679.9253087548200 3658.8075498425901 1.1306103342417038 
-84.425321707215673 -163.56301923288160 66.459775263700550 -84.425321707215701 -163.56301923288166 66.459775263700536 -2009.9171507155886 4.6638888228173172e-14 2.4115218225227269e-14 2.3569726294967689e-14 -2689.4145579108463 2.1289469354091040e-09 3.5420799626706417e-10 1.4858440728460209e-05 0.0078491783492020857 1.3017234763334861e-19 1.6931269008084127e-18 -8.6116853168666647e-19 -0.10628084338893889 -82.508500824799995 -162.30138233600007 77.801893530400037 2229.3857910936085 0.0000000000000000 0.0000000000000000 0.0000000000000000 0.0000000000000000 3.2673778822144524 3.5500765455234866 1.2829295219833230 1.1308781547798574 4705.0814884200654 4692.9773135656251 1.1326667705013771 
-28.784532298526646 -125.74393686355783 120.74818338444797 -28.784532298526646 -125.74393686355781 120.74818338444803 -111.02534402447873 -2.0393577761951855e-14 -2.4854640246571297e-14 2.0308133988686064e-14 -2.3026990706035556e-28 8.8123944252949116e-10 1.9143908680518962e-10 8.9228620971937289e-06 -0.023143549366878857 4.6313129310341635e-18 -3.6403808238747729e-17 5.2595394509309348e-17 1.8115676349696268e-29 -27.991095225219734 -125.06206457489009 127.55940664489751 1124.7619503421174 0.0000000000000000 0.0000000000000000 0.0000000000000000 0.0000000000000000 3.2466090130318301 3.5050657084325212 1.2587212247357720 1.1311105529037802 562.16512727088059 589.46572874781634 1.1221380050819758 