# For a description of the Tecplot format see the Tecplot User's guide.
#
Variables=x,y,z,s_u,s_v,s_w,s_p,mono_f_vel_u,mono_f_vel_v,mono_f_vel_w,const,u_nu,v_nu,w_nu,p_nu,x_nu,y_nu,z_nu,const,u_ref,v_ref,w_ref,vol_ref,x_ref,y_ref,z_ref,const,I1,I2,I3,J,p1,p2,p3
Zone f=fepoint, n=1339, e=6475, et=brick, c=black
-59.6119 -70.3619 174.822 -59.611930577943333 -70.361938865745273 174.82205796970155 -163.34988973388374 2.9965318913781230e-07 1.4734512596218933e-07 1.2432476648130505e-06 -165.61652453973474 1.5385508450593832e-08 -6.0463511974973027e-10 7.1318755647808985e-06 0.00067250272331630416 4.1910091136693404e-12 -1.0499100345601836e-11 9.6139384679130453e-12 0.00068563551750213173 -58.668039002000000 -70.473359259200009 176.35421013599998 215.13583165143561 0.0000000000000000 0.0000000000000000 0.0000000000000000 0.0000000000000000 3.1705752049866729 3.3476981021834367 1.1771948228677487 1.0844482845501622 1240.3524849346779 1240.3525190685268 1.0849872140970411 
-65.992902213922378 -76.364614006094911 182.94427508662253 -65.992902213922406 -76.364614006094911 182.94427508662253 -171.98164151424231 -9.0825485355832841e-06 -8.3223827029458354e-06 8.5932604678733632e-06 -172.50996178166537 1.6785485917880649e-08 -2.7173230332522275e-10 5.0282852850358495e-06 0.00070538837895015136 5.9721716118713249e-11 2.6558383014966551e-11 -6.4127943157128332e-11 0.00073610506421962162 -64.963123215600007 -76.414687385200040 184.02450960799996 253.42820447565578 0.0000000000000000 0.0000000000000000 0.0000000000000000 0.0000000000000000 3.1718771280670874 3.3504478506660131 1.1786457193841708 1.0844482845501633 1261.2860662233518 1261.2860916567802 1.0856573103671621 
-70.757502790511694 -71.484195243050209 175.75651290489341 -70.757502790511694 -71.484195243050195 175.75651290489347 -166.32037546793438 -5.1633887518912997e-06 -1.1875033097381446e-06 -9.1212901378401390e-08 -171.16702727338819 1.7830823401121521e-08 -5.4239890356910792e-10 6.8898590743771138e-06 0.00068642864909128538 5.0388159241575232e-11 8.3854698404139349e-12 1.0639514983483363e-11 0.00070614490995120837 -69.663592608799988 -71.584146237200002 177.23667228800005 218.29881668600640 0.0000000000000000 0.0000000000000000 0.0000000000000000 0.0000000000000000 3.1725938108950982 3.3519128823149411 1.1793945073303960 1.0844482845501637 1255.5282568589482 1255.5282514046025 1.0860032550082550 
-58.088390112312283 -87.793503576058129 169.86275234430215 -58.088390112312261 -87.793503576058200 169.86275234430204 -150.19233250560205 -6.5649810823110343e-06 1.1171516167400343e-05 2.4856468550639762e-05 0.0000000000000000 1.5051250495945471e-08 3.6212133291968485e-10 8.4162966764722569e-06 0.00059885675782871334 2.2292158413194248e-11 -1.4377977121785949e-10 -8.5627664933060534e-11 0.0000000000000000 -57.165005282198301 -87.726774323660578 171.67083873969227 259.76550921814646 0.0000000000000000 0.0000000000000000 0.0000000000000000 0.0000000000000000 3.1643129212967684 3.3344775243195635 1.1702214075404767 1.0824609561611194 1186.0024219309773 1186.0023211613732 1.0817660466764634 
-90.254685601467784 -83.399747683870274 112.09039793538334 -90.254685601467813 -83.399747683870316 112.09039793538338 -126.72379233273071 3.3567620392314118e-06 1.8852551532024077e-05 -9.6097854007906793e-06 0.0000000000000000 2.2108471969817245e-08 1.1844047964615356e-10 2.3378881580882194e-05 0.00058700404397309482 7.0262638656132712e-11 -1.2590839227137881e-10 5.9387483285224867e-11 0.0000000000000000 -88.898344731952406 -83.377922378373768 117.11292023788836 283.91631954144174 0.0000000000000000 0.0000000000000000 0.0000000000000000 0.0000000000000000 3.1653943005100746 3.3364646225651744 1.1711238640323993 1.0827815192483976 1145.6469237171304 1145.6469370041314 1.0821840890477017 
-99.070696534884604 -66.753401179923046 102.67368617639679 -99.070696534884618 -66.753401179923031 102.67368617639680 -158.20289752083812 2.1986506936461260e-06 9.4442341120504885e-06 -4.4157380245954323e-05 -164.42145428267352 2.4042678320457253e-08 -8.0476114661109942e-10 2.5817735771482834e-05 0.00060620213484269172 -4.6900914391442518e-11 -8.4992772412997863e-12 -8.1130724266277194e-11 0.00062509508514115779 -97.595692787999965 -66.901700632800015 108.22015140479995 322.25788568967050 0.0000000000000000 0.0000000000000000 0.0000000000000000 0.0000000000000000 3.1713979814820346 3.3495288830477530 1.1782066977885852 1.0844482845501646 1234.1815664092849 1234.1819614619142 1.0854544353565549 
-80.892864266512547 -67.389653178167961 103.09230119099186 -80.892864266512547 -67.389653178167933 103.09230119099180 -155.88188768633390 -8.5800274038983517e-06 1.0259116024518185e-05 -1.8986663909176036e-05 0.0000000000000000 2.0054505195377104e-08 -7.6947392901871570e-10 2.5709317785782559e-05 0.00061679717611347600 2.5328434992271144e-11 -9.8437714518054684e-11 -1.0994142410063977e-10 0.0000000000000000 -79.662532843379708 -67.531450170133141 108.61547480962874 295.38956150422752 0.0000000000000000 0.0000000000000000 0.0000000000000000 0.0000000000000000 3.1669050467834268 3.3399149928733798 1.1730727558784866 1.0831815609280380 1208.3141461900807 1208.3135156465144 1.0830829782502145 
-95.910252274922158 -81.845443954391939 103.10377287900727 -95.910252274922172 -81.845443954391897 103.10377287900731 -147.96909118374299 -1.2786964652972394e-05 1.4903228750037493e-05 -3.2998573209003813e-05 0.0000000000000000 2.3349286754070775e-08 3.2232216895522470e-11 2.5706346711729115e-05 0.00052653384115816703 3.5481026162206649e-11 -2.5671518729473641e-10 -2.9858309105433711e-10 0.0000000000000000 -94.477787882002133 -81.839503548705352 108.62630821647583 293.80807890400462 0.0000000000000000 0.0000000000000000 0.0000000000000000 0.0000000000000000 3.1670923448607500 3.3401844024323948 1.1731526902631868 1.0831938978585656 1187.4773798824610 1187.4775917871873 1.0831198891514970 
-48.122139392677973 -126.41128556785267 134.94951884203786 -48.122139392677980 -126.41128556785269 134.94951884203786 -57.866095013988762 4.8161014976568403e-06 4.7018200095322658e-06 1.3886783476387172e-05 0.0000000000000000 4.8883861899946245e-07 -3.0459538432028142e-07 1.7038290293717123e-05 0.00033278016056524249 2.1305637545536733e-11 -6.5342240907498536e-11 -9.8971832418522729e-12 0.0000000000000000 -47.292355390977058 -125.96433165720771 138.67232254046354 244.31333887135355 0.0000000000000000 0.0000000000000000 0.0000000000000000 0.0000000000000000 3.1758576947429198 3.3591325522816260 1.1833652986618042 1.0880680047733824 1086.2240624554142 1086.2240605428497 1.0878257942333509 
-34.823082015885227 -141.04930530788064 135.49939810250766 -34.823082015885227 -141.04930530788067 135.49939810250768 -57.037665961032303 1.1367326528790475e-05 1.2907133389798683e-06 7.2321334479503452e-06 0.0000000000000000 2.2225585794648230e-07 -2.0541561908202552e-08 1.7189700214550812e-05 0.00024787928163326066 2.9440287115063888e-11 -1.1660049738564692e-10 2.4692287713065133e-11 0.0000000000000000 -34.196989160350306 -140.43319657724166 139.21506628885933 210.16870282748488 0.0000000000000000 0.0000000000000000 0.0000000000000000 0.0000000000000000 3.1745377196438365 3.3562915679085985 1.1818387207284073 1.0871940355736673 1078.6985865737227 1078.6986018040445 1.0871245946745320 
-31.513924329539524 -128.11999986681548 139.21534421245337 -31.513924329539549 -128.11999986681542 139.21534421245349 -68.823821492819633 8.7924775297170661e-06 3.0135426490021189e-06 1.8794588115157885e-05 0.0000000000000000 9.2208634894230812e-09 2.5985996687794004e-09 1.6353734054064262e-05 0.00031264093796439787 -3.0866220187566411e-11 -6.0951130307371927e-11 -6.7877376117337056e-11 0.0000000000000000 -30.948229910445860 -127.64113600963313 142.72864290474456 229.21992526850030 0.0000000000000000 0.0000000000000000 0.0000000000000000 0.0000000000000000 3.1721263622196991 3.3511313791575894 1.1790832593293030 1.0862076560310325 1087.4806428465424 1087.4806333863405 1.0858557537695461 
-49.250067606964031 -131.40305357069423 143.61092081564209 -49.250067606964038 -131.40305357069425 143.61092081564217 -57.406044829482916 1.0352946764210519e-05 2.4151118694473215e-05 -9.9523754917402949e-06 0.0000000000000000 4.8322112599156309e-07 -2.6479563670957394e-07 1.4936067578428480e-05 0.00031393184445183191 -4.2846831946682981e-11 -1.1060220179883408e-10 2.9222900036520332e-11 0.0000000000000000 -48.406431667502837 -130.90513559487593 146.85896726379221 225.63426853136377 0.0000000000000000 0.0000000000000000 0.0000000000000000 0.0000000000000000 3.1772131575050171 3.3619235641900214 1.1848013615221549 1.0882759561828688 1086.4629590349393 1086.4629617813780 1.0884857699878372 
-53.875760934115561 -84.927606537982228 70.280949282750541 -53.875760934115540 -84.927606537982228 70.280949282750512 -143.60518298864173 -5.6819739249161481e-06 7.9538966011812680e-05 -0.00011662834027621746 0.0000000000000000 -1.0979866445875234e-09 -1.0237296585665903e-06 3.4213441756918100e-05 -0.00060019861824317272 2.0523513764851693e-11 -3.8501312751292823e-09 -1.4425594696213961e-09 0.0000000000000000 -53.009977022357148 -84.940192361847963 77.707205907375524 356.07450292316213 0.0000000000000000 0.0000000000000000 0.0000000000000000 0.0000000000000000 3.1703953999781920 3.3472607237153702 1.1769329262130634 1.0845344669896841 1164.9902578340591 1164.9919653082386 1.0848568191163108 
-41.000906467719311 -85.681815949852364 59.501316309504624 -41.000906467719311 -85.681815949852350 59.501316309504602 -229.55164719312057 5.3958159421774742e-06 2.1411168282382528e-05 -7.2933876371804988e-05 0.0000000000000000 -2.0265159106284199e-07 -2.5746564778796116e-07 3.7346028043116804e-05 -3.9449956604032926e-05 -7.6377285812402154e-10 -5.5201700182271016e-10 1.0545040243962420e-09 0.0000000000000000 -40.313282635619565 -85.652866469445740 67.489144002613742 334.72004880612383 0.0000000000000000 0.0000000000000000 0.0000000000000000 0.0000000000000000 3.1651934314243975 3.3366384140350127 1.1715122162213019 1.0831290878682416 1327.9455251861075 1327.9417019305663 1.0823616006294505 
-43.636899246143194 -94.169462431775059 76.199067369993543 -43.636899246143201 -94.169462431775116 76.199067369993585 -117.13957875342680 7.7204722603962548e-05 1.2117163829323501e-05 -4.6686827957727477e-05 0.0000000000000000 -3.9835931459375128e-07 -2.5641127434401467e-07 3.2399822810299068e-05 -0.00027089349673367310 -2.2969255105184341e-09 -2.6981218573711188e-11 -2.4499682879563845e-09 0.0000000000000000 -42.930125987095458 -94.071309017270835 83.274511392489799 283.94561953274422 0.0000000000000000 0.0000000000000000 0.0000000000000000 0.0000000000000000 3.1719428795203743 3.3506007598761736 1.1787318527709054 1.0847150235036389 1139.4670491928082 1139.4657429545923 1.0856923255991970 
-45.703013857031827 -99.152535064567758 60.100325993523384 -45.703013857031834 -99.152535064567786 60.100325993523420 -175.55102211093484 7.4779213017784927e-05 3.4606970903262884e-05 -0.00011445346450993361 0.0000000000000000 1.2333918691931345e-08 9.9207897452657789e-10 3.6843900856453615e-05 -0.00021321079316203545 -6.7302121970152994e-10 8.8838739494220939e-10 1.6605123890691596e-09 0.0000000000000000 -44.946335306532468 -98.969717126470769 68.015559797458934 339.42980011114588 0.0000000000000000 0.0000000000000000 0.0000000000000000 0.0000000000000000 3.1700105907125509 3.3468525979859156 1.1769217169012309 1.0843479268281448 1229.0947512632090 1229.0952011761431 1.0848573159546222 
-36.276876656840663 -101.02270545701100 67.843961639863835 -36.276876656840642 -101.02270545701096 67.843961639863878 -169.78756585829558 4.7755180923209363e-05 2.2142714820082418e-05 -5.0145854221814596e-05 0.0000000000000000 -3.7421935558910936e-07 5.7400874278415573e-08 3.4899397590746160e-05 1.4477192508316053e-05 -1.0673726441652160e-09 6.0118428896397217e-10 -3.1334294979655419e-10 0.0000000000000000 -35.672109309640206 -100.83293553867907 75.360366609178811 338.44965823895870 0.0000000000000000 0.0000000000000000 0.0000000000000000 0.0000000000000000 3.1634175365874553 3.3329073147411057 1.1695546394772831 1.0829653207854142 1216.0284975883560 1216.0292519821060 1.0814585962305474 
-49.787447799178544 -112.30935673393262 57.312812783729171 -49.787447799178537 -112.30935673393263 57.312812783729179 -152.40900314637216 9.2304198178560384e-05 1.5506890771786530e-05 -6.4268065564770859e-05 -115.68878623262866 1.3230039980216547e-08 1.7217608450081912e-09 3.7565844824172245e-05 0.00036501329223316776 4.8755136369815898e-10 -2.3626226551499114e-11 6.7457883798869521e-11 0.00080631097784772919 -48.975793059600008 -111.99207679200002 65.383142959360015 326.57209562220959 0.0000000000000000 0.0000000000000000 0.0000000000000000 0.0000000000000000 3.1693474412538651 3.3450147870105034 1.1757335394204884 1.0844042875644688 1197.0434778595186 1197.0432322714073 1.0843093337498944 
-25.727344323474739 -110.78355769913478 59.522259094595086 -25.727344323474757 -110.78355769913472 59.522259094595043 -218.94136050319710 1.6666719629011311e-05 1.1306274204187288e-05 -5.8470252240426179e-05 0.0000000000000000 7.9513015893706296e-09 1.6371389799374467e-09 3.6993615628588827e-05 0.00041817560626880481 -2.0619769780988949e-10 4.0180737309426278e-11 4.0567353500149373e-11 0.0000000000000000 -25.239536857883341 -110.48187134057846 67.469656361758609 349.35568362690350 0.0000000000000000 0.0000000000000000 0.0000000000000000 0.0000000000000000 3.1668634558655797 3.3400250017763549 1.1732295006582520 1.0834952827118878 1320.7948573358299 1320.7947958529694 1.0831562075552064 
-44.820654808503278 -111.57841128361538 69.034248931382123 -44.820654808503285 -111.57841128361541 69.034248931382095 -125.27059541439732 4.6612544810299793e-05 -4.2962111086965032e-05 -2.9589494993722044e-05 0.0000000000000000 1.2140334987309488e-08 1.6812150560596706e-09 3.4530085153861023e-05 0.00030689958159376714 1.1935487712712378e-10 5.1675144193615643e-11 -4.2599740761677589e-10 0.0000000000000000 -44.075852747763513 -111.26860156453857 76.452402029906395 268.59635586333832 0.0000000000000000 0.0000000000000000 0.0000000000000000 0.0000000000000000 3.1720781405188343 3.3511432025424552 1.1791466534728838 1.0844283041332203 1171.5673929659895 1171.5673903588834 1.0858865668800268 
-59.235897772130194 -106.82528601038308 99.604997108643786 -59.235897772130166 -106.82528601038304 99.604997108643758 -46.993224403399367 1.3057688459375253e-05 3.5555080563043352e-05 3.3199419928224936e-06 0.0000000000000000 4.3847182268512924e-07 -7.3796885657899611e-07 2.6418226736524606e-05 0.00031598644651558788 -1.2231554701315079e-10 -1.8113863686487388e-10 -3.1387766407155724e-11 0.0000000000000000 -58.254647241440821 -106.62760994408018 105.33920711112118 241.62621693813244 0.0000000000000000 0.0000000000000000 0.0000000000000000 0.0000000000000000 3.1801228456845352 3.3679905799793617 1.1879648048877531 1.0894497215113479 1079.4491756172176 1079.4490637004308 1.0899374860155715 
-65.448875348575314 -90.101351011515050 90.409516202502530 -65.448875348575271 -90.101351011515078 90.409516202502559 -86.591388498782976 -2.0577237363889899e-05 3.5778305007782200e-06 3.8557138386328598e-05 0.0000000000000000 4.4308434949887500e-07 -7.4887847645922103e-07 2.8969288879202392e-05 0.00029781280395428823 -7.9734862898290000e-10 1.9565960735601966e-10 -5.7847015431346547e-11 0.0000000000000000 -64.370648572599308 -90.090304358695661 96.688480747766732 239.98138923263960 0.0000000000000000 0.0000000000000000 0.0000000000000000 0.0000000000000000 3.1755007669636153 3.3581021625705607 1.1826803653536617 1.0858694403616165 1111.3046353481079 1111.3054401542213 1.0875063225746404 
-77.162993561466749 -99.833028292724350 95.331019301959458 -77.162993561466749 -99.833028292724393 95.331019301959401 -76.940877784638204 -3.3016969683648567e-05 4.1599967776636132e-05 -1.0349082235262484e-05 0.0000000000000000 5.4849214911176263e-07 -6.1407296781866916e-07 2.7728893549923912e-05 0.00020361711156438470 -6.8017885163042325e-12 3.3285456854838769e-11 -3.4350270308119426e-10 0.0000000000000000 -75.913673002404863 -99.702254402691466 101.32606574872912 288.13617662859207 0.0000000000000000 0.0000000000000000 0.0000000000000000 0.0000000000000000 3.1771182747450304 3.3615817604915073 1.1845509439408834 1.0871394791209070 1106.9709998545884 1106.9709491967596 1.0883738077125398 
-56.101254692531818 -93.640447876295909 97.459711589341836 -56.101254692531789 -93.640447876295923 97.459711589341794 -80.578659408716902 -4.7826295695026607e-07 2.2781067859436211e-05 1.7427468760140236e-05 0.0000000000000000 4.3903390161556309e-07 -7.7432165376267040e-07 2.7013477654891291e-05 0.00042204611423603733 2.7286422775588200e-11 -3.6988950883885539e-10 2.8200006812536136e-10 0.0000000000000000 -55.164710769962618 -93.586508083202432 103.32606452766413 222.68531933077850 0.0000000000000000 0.0000000000000000 0.0000000000000000 0.0000000000000000 3.1751930984719787 3.3572773763085548 1.1821597804937669 1.0869975792833815 1125.7870497414106 1125.7874020223901 1.0872719449357922 
-46.530595563385866 -176.87292135397280 152.89710533213548 -46.530595563385852 -176.87292135397277 152.89710533213557 -57.039815517503897 -2.0640450938620905e-05 -1.9026376678462416e-05 4.1626085766654681e-05 0.0000000000000000 1.2515494668408069e-08 5.3024277191227043e-09 1.2810265650031738e-05 0.00026714257447161101 2.6652493364817588e-10 1.8361421152025761e-10 -2.1805118031888492e-10 0.0000000000000000 -45.762777822239421 -175.89580528354742 155.64915507299250 248.91339099022119 0.0000000000000000 0.0000000000000000 0.0000000000000000 0.0000000000000000 3.1751447055725301 3.3570913290613094 1.1820211290757279 1.0863679568443383 1062.2962964887813 1062.2966938459024 1.0872065083855740 
-52.280709313042550 -186.63974388291939 166.13840605024495 -52.280709313042543 -186.63974388291942 166.13840605024498 -66.686974563466606 2.9832143611999709e-06 -4.0923185194108785e-06 -3.5057467285643254e-06 -72.705392870874917 1.3777057300545792e-08 5.8440984274099605e-09 9.3808730206035307e-06 0.00037388040186993901 -2.8448395129599828e-11 -2.1585480955551565e-11 -7.4569725303601697e-12 0.00038056604488745496 -51.435495451599998 -185.56281141599996 168.15371392000000 294.81703600272857 0.0000000000000000 0.0000000000000000 0.0000000000000000 0.0000000000000000 3.1688482624613576 3.3440851103298210 1.1753058730677919 1.0844853359772360 1061.1443816070166 1061.1420162923148 1.0841158765300900 
-43.401161685738231 -172.10727399119315 164.14492606231337 -43.401161685738217 -172.10727399119321 164.14492606231340 -64.052364947875020 4.2071851006952792e-06 -3.9643354265292455e-06 8.6492215290714927e-06 0.0000000000000000 5.3158537919973927e-08 -7.5177266000979816e-09 9.8595086753401613e-06 0.00033584402871125155 1.9739344813941345e-11 8.6451155873611641e-11 -2.3220293281958257e-11 0.0000000000000000 -42.672974891599750 -171.18173466392949 166.26923354793541 271.88244999766295 0.0000000000000000 0.0000000000000000 0.0000000000000000 0.0000000000000000 3.1697496078701644 3.3459779120205302 1.1762991033102248 1.0848790639794414 1057.4097169600182 1057.4102050071333 1.0845734353996475 
-60.336377500873397 -179.01640576188936 155.12237990976138 -60.336377500873375 -179.01640576188944 155.12237990976143 -73.019048524841409 -9.7977499361649234e-06 -4.1869076169125918e-06 -1.9958857129972247e-06 0.0000000000000000 1.5544448089821472e-08 5.4213126210456153e-09 1.2233937077610335e-05 0.00037824437420688804 5.9531686172724686e-11 3.3893884371265172e-11 -3.5841432448836500e-12 0.0000000000000000 -59.382734921100123 -178.01738339707751 157.75061606229067 243.94852352315442 0.0000000000000000 0.0000000000000000 0.0000000000000000 0.0000000000000000 3.1694953279106239 3.3453416180267270 1.1759136799767245 1.0848347193648888 1072.1441102685897 1072.1437738872728 1.0843960907617074 
-31.219857298966630 -102.92637260943752 88.983824300821993 -31.219857298966641 -102.92637260943756 88.983824300822050 -73.495837510353013 1.8231036230649068e-05 3.5557492555716895e-05 -7.7272876589223546e-05 0.0000000000000000 2.1132078483389663e-07 -4.1149776663214296e-07 2.9454178531597427e-05 -0.00018636491391665842 5.3421274589921531e-10 -2.2799726736103316e-09 2.0865328933405601e-10 0.0000000000000000 -30.660097366607719 -102.72526557899965 95.328291536857705 204.58703120518373 0.0000000000000000 0.0000000000000000 0.0000000000000000 0.0000000000000000 3.1742840867123712 3.3551759154914014 1.1809613859398456 1.0861964751826318 1089.8604110355188 1089.8602267878812 1.0867189807888240 
-19.204228340117481 -111.21201631367106 86.931691724228784 -19.204228340117478 -111.21201631367104 86.931691724228756 -117.90630640383516 3.6801763870180998e-05 1.2992008218369703e-06 -7.1156586059758226e-05 0.0000000000000000 6.5201433419037605e-09 1.6608988628874497e-09 2.9894788394102530e-05 -3.5206809882405830e-05 -1.4702536519094638e-09 -6.0614468695670352e-11 8.6973875652011475e-10 0.0000000000000000 -18.804221549666405 -110.90595113131390 93.354036648627854 267.24800799435923 0.0000000000000000 0.0000000000000000 0.0000000000000000 0.0000000000000000 3.1685375822515591 3.3432400698825933 1.1747667302293747 1.0843286918806554 1158.6292249929209 1158.6292628718284 1.0838678590490725 
-34.397645893581867 -104.94500200723608 78.038930985414623 -34.397645893581860 -104.94500200723601 78.038930985414638 -121.90801242759851 3.9753705226048922e-05 -8.8359915949659220e-06 -5.6321759519238476e-05 0.0000000000000000 -4.9308193935248391e-08 -3.8530906142733667e-08 3.2504769033804695e-05 0.00020210464542081409 3.0057629850083830e-10 3.3015110791898730e-11 3.6932891232555580e-10 0.0000000000000000 -33.815892125380543 -104.71065599625929 85.007910193808286 270.69679205096202 0.0000000000000000 0.0000000000000000 0.0000000000000000 0.0000000000000000 3.1658551323817217 3.3380049515046304 1.1722186642312529 1.0836969672216064 1141.4387054984761 1141.4386851546080 1.0826872687216200 
-19.322786294323656 -100.57705762492709 89.096148797139051 -19.322786294323652 -100.57705762492714 89.096148797139023 -97.979128066589681 1.4850899822155116e-05 -5.6938639821498120e-06 -1.7688466692826285e-05 0.0000000000000000 6.5461540355027373e-09 1.0710917708323107e-09 2.9334211056664124e-05 8.8934273700661079e-05 -4.4668503235970198e-10 -3.6650746442445599e-10 -5.6803441850337414e-11 0.0000000000000000 -18.921183722278450 -100.37968114352928 95.398064000337470 185.31956687594098 0.0000000000000000 0.0000000000000000 0.0000000000000000 0.0000000000000000 3.1702543534135761 3.3467505540165465 1.1765605676591706 1.0845683840678233 1129.2120945098031 1129.2121021018015 1.0846958750712548 
-31.685408819851389 -118.34258360427481 171.51853101911223 -31.685408819851396 -118.34258360427476 171.51853101911223 -96.348631079561542 3.4885813084158605e-05 3.7433460873544649e-05 9.1145488391893614e-06 0.0000000000000000 -5.5742864158362121e-08 -1.7972050878440493e-07 7.8054304883377098e-06 0.00025701261112939030 -3.1142472849511318e-10 -4.4846870315333047e-10 1.3068836462464257e-10 0.0000000000000000 -31.124431206993112 -117.97934695114738 173.21200361760444 258.17126679857051 0.0000000000000000 0.0000000000000000 0.0000000000000000 0.0000000000000000 3.1706620581958300 3.3477499612022417 1.1771558402410596 1.0852765586463167 1118.7596951434980 1118.7610473889372 1.0849682957511044 
-31.203890830180622 -133.66133130142194 162.60552875305004 -31.203890830180622 -133.66133130142191 162.60552875304992 -74.602525684808825 2.4883956358667811e-05 2.1768679699250329e-06 -1.5406684754057616e-06 0.0000000000000000 6.5699438659172799e-09 -6.8221486395264631e-08 1.0234289518271413e-05 0.00031725740877623751 -1.5996237959160947e-10 5.9463593989063445e-11 -2.1933700248825142e-11 0.0000000000000000 -30.642131568542830 -133.13454878399213 164.80820313575899 262.24283076768535 0.0000000000000000 0.0000000000000000 0.0000000000000000 0.0000000000000000 3.1723079708598489 3.3513534115591743 1.1791206040001823 1.0860428191620783 1092.5203826263703 1092.5189027127610 1.0858727731689077 
-43.411924120322475 -120.46921557257411 161.46891154442247 -43.411924120322482 -120.46921557257414 161.46891154442253 -58.762211330166600 4.6300214414515237e-05 2.2129084010806027e-05 6.4309141003222965e-06 0.0000000000000000 1.0039263796759181e-07 -4.3424700404852403e-07 1.0296792646197023e-05 0.00015386583417066889 -4.6022673018650228e-10 -7.8393045318750721e-11 2.9340617704295283e-10 0.0000000000000000 -42.676694985445003 -120.10595080876966 163.70375490782192 268.28772502602959 0.0000000000000000 0.0000000000000000 0.0000000000000000 0.0000000000000000 3.1795539145141714 3.3666586509883323 1.1871954927719459 1.0885470596968227 1085.8044530083162 1085.8061081396145 1.0895844789671576 
-24.214771674155138 -114.57439597779043 159.42386887376435 -24.214771674155141 -114.57439597779047 159.42386887376423 -101.36745202559047 1.6020174091896971e-05 1.2807881436473817e-05 1.4212007522501817e-05 0.0000000000000000 7.6194450471245290e-09 1.8473794716200585e-09 1.1119885281019036e-05 0.00040256663683056873 -1.2380254790913261e-10 -9.2627056819975302e-11 4.6400733137907144e-11 0.0000000000000000 -23.747323328369049 -114.23396745764113 161.81277151251504 321.01516800445251 0.0000000000000000 0.0000000000000000 0.0000000000000000 0.0000000000000000 3.1686671881047901 3.3436367030207395 1.1750356604499956 1.0845697130845100 1125.2286067688840 1125.2284696950778 1.0839917978907851 
-6.6950825706168331 -105.23250769257787 103.85051249468100 -6.6950825706168331 -105.23250769257787 103.85051249468098 -48.779725641301177 2.1452606313564421e-06 -2.1918485311343939e-06 -3.9665627695906856e-05 -30.833243114796279 3.7756624771123626e-09 1.3292792422348041e-09 2.5512947029682209e-05 0.00021818419217560397 -2.7804213205782344e-11 1.0743480654939767e-10 -1.4985912093609664e-10 0.00016558120498258187 -6.4634479885999987 -104.98755276399999 109.33149947120000 327.67017865987640 0.0000000000000000 0.0000000000000000 0.0000000000000000 0.0000000000000000 3.1693641518730340 3.3451842318651894 1.1758900249894804 1.0846661001888072 1016.0533327835678 1016.0533295215096 1.0843848855165241 
-12.111375937812337 -97.280567066289990 95.491609588974043 -12.111375937812339 -97.280567066290004 95.491609588974043 -85.765121820184987 -1.4367542907987118e-06 -4.8240164183060169e-06 -4.6431220070852197e-05 -79.912114307609158 4.9639866106510055e-09 8.8826568322986056e-10 2.7677837067585642e-05 0.00020198461069259398 -2.1451177665401079e-11 -6.9263352958871205e-12 2.7667147601341707e-11 0.00016224848240557085 -11.806838433999999 -97.116880539599975 101.43768333439998 212.90238721710071 0.0000000000000000 0.0000000000000000 0.0000000000000000 0.0000000000000000 3.1694529675246548 3.3453081198265293 1.1759241895267036 1.0844482845501640 1095.3115764632487 1095.3116250827736 1.0844004040985558 
-16.209299907102540 -110.66053183253260 97.249141462313673 -16.209299907102544 -110.66053183253261 97.249141462313673 -73.280754423605003 1.7501119787002587e-05 -4.2300108293376091e-06 -8.7900851802070036e-05 0.0000000000000000 5.8630635901835149e-09 1.6303115524252123e-09 2.7222650153646551e-05 0.00016913386257428052 -9.7316243045820341e-11 -5.7590320350776597e-11 -8.5928250307372876e-11 0.0000000000000000 -15.849604639409371 -110.36010279166017 103.09742667861765 236.22178992679409 0.0000000000000000 0.0000000000000000 0.0000000000000000 0.0000000000000000 3.1684836080073584 3.3433538293347080 1.1749392029098649 1.0845596730571556 1073.3365365507198 1073.3365218012261 1.0839464204108753 
-24.217057770875087 -99.722859078646053 96.385509506349379 -24.217057770875090 -99.722859078646067 96.385509506349365 -69.644642003124275 2.2704903260035406e-05 3.5012086692889239e-05 -5.4386315682426594e-05 0.0000000000000000 7.6199465348647522e-09 1.0237078962305191e-09 2.7446324022406546e-05 0.00020073110837939945 -6.2020135048124854e-11 -1.8157322033051989e-10 -5.6223056134883858e-11 0.0000000000000000 -23.749578654390465 -99.534212460059550 102.28184693721489 211.57004919854941 0.0000000000000000 0.0000000000000000 0.0000000000000000 0.0000000000000000 3.1704788346277009 3.3475586980412984 1.1771518924051458 1.0852282046267465 1071.5924616085056 1071.5924444782834 1.0849661725461921 
-55.017687585683007 -108.59535874014125 108.62670501401951 -55.017687585683007 -108.59535874014131 108.62670501401952 -29.832182071181830 9.5775841225378551e-06 2.8724838666617820e-05 -2.1230193199466741e-05 0.0000000000000000 5.7392359195577233e-07 -7.1580325132820804e-07 2.3984394604852665e-05 0.00033698292759572012 2.1559653887063535e-10 -9.2264389739031109e-11 1.8570057840505766e-11 0.0000000000000000 -54.087034329299712 -108.37170302860723 113.84396407125838 191.01171882188567 0.0000000000000000 0.0000000000000000 0.0000000000000000 0.0000000000000000 3.1825803074642063 3.3730562047607440 1.1905756322043890 1.0905257988274200 1055.5672351122764 1055.5672677098521 1.0911354594235843 
-42.442002756453903 -107.97286419218045 105.58172845123255 -42.442002756453896 -107.97286419218048 105.58172845123258 -38.590741758708972 -9.5840532403491716e-06 2.1311913167536477e-05 5.7248990088321877e-06 0.0000000000000000 4.9311346822730355e-07 -6.1013470732849526e-07 2.4868523261589846e-05 0.00032781314009656682 5.1364343718101963e-11 -1.0461959042726902e-10 1.6887842194475824e-10 0.0000000000000000 -41.690910404717421 -107.74885629568415 110.97670241767709 270.34727434602189 0.0000000000000000 0.0000000000000000 0.0000000000000000 0.0000000000000000 3.1793977527555151 3.3661134632482215 1.1868008752474142 1.0892324578932735 1067.7780502218118 1067.7780016524259 1.0894039291188014 