# For a description of the Tecplot format see the Tecplot User's guide.
#
Variables=x,y,z,s_u,s_v,s_w,s_p,mono_f_vel_u,mono_f_vel_v,mono_f_vel_w,const,u_nu,v_nu,w_nu,p_nu,x_nu,y_nu,z_nu,const,u_ref,v_ref,w_ref,vol_ref,x_ref,y_ref,z_ref,const,I1,I2,I3,J,p1,p2,p3
Zone f=fepoint, n=1339, e=6475, et=brick, c=black
-58.7799 -70.4601 176.180 -58.779860630228626 -70.460121227484208 176.17957401736501 -47.536564209628459 -6.7777860789993442e-09 -1.6216866758383470e-07 4.6069333275140541e-07 -47.768566582537282 1.4166296954942756e-10 -7.3399342159774505e-12 1.5603239145178808e-08 2.4861649893619194e-05 6.7400669395313606e-14 -1.1804609431389209e-13 1.5854653091518916e-13 2.4924417308395092e-05 -58.668039002000000 -70.473359259200009 176.35421013599998 215.13583165143561 0.0000000000000000 0.0000000000000000 0.0000000000000000 0.0000000000000000 3.0194633971353766 3.0390155810428392 1.0195523018576167 1.0095797232997470 157.92335465773269 157.92335233385049 1.0097289441785298 
-65.085119816950055 -76.408738088485492 183.90138347981349 -65.085119816950055 -76.408738088485492 183.90138347981343 -49.264597762655768 -8.2330173039004813e-07 -1.6493036934912706e-06 1.7805697367929430e-06 -49.237610076139738 1.5454792653968319e-10 -3.2947672368166536e-12 1.1000979682762592e-08 2.4749057658167462e-05 2.2917670197275003e-13 -1.7223869405848905e-13 7.7134142229621273e-14 2.4885797255400742e-05 -64.963123215600007 -76.414687385200040 184.02450960799996 253.42820447565578 0.0000000000000000 0.0000000000000000 0.0000000000000000 0.0000000000000000 3.0198536983948121 3.0398010893779173 1.0199475210530216 1.0095797232997470 162.41387953637422 162.41390006033072 1.0099247669947644 
-69.793186749453938 -71.572270902806054 177.06796235480101 -69.793186749453952 -71.572270902806054 177.06796235480101 -47.968817289348692 -7.6361924731136267e-07 -3.1142810921219822e-07 2.1517772092950914e-07 -48.661720040565690 1.6417904188936738e-10 -6.5923794201339084e-12 1.5073760240014167e-08 2.4950271839971184e-05 1.1422456740226381e-13 -7.1444428765590172e-14 1.5377863588654451e-13 2.5010472777537540e-05 -69.663592608799988 -71.584146237200002 177.23667228800005 218.29881668600640 0.0000000000000000 0.0000000000000000 0.0000000000000000 0.0000000000000000 3.0200765657061095 3.0402482237803077 1.0201717907879433 1.0095797232997472 160.99616065688431 160.99616352548091 1.0100359146448361 
-57.274397502466549 -87.734702530806643 171.46475138284018 -57.274397502466577 -87.734702530806658 171.46475138284032 -45.615206607355354 -1.1021743277287477e-06 1.4982287803161126e-06 4.1246720787081562e-06 0.0000000000000000 1.3858287781220999e-10 4.3983983122330983e-12 1.8413310209908221e-08 2.4821192695618344e-05 1.7664914340400035e-13 -1.6399332149760406e-13 2.1597396803870824e-13 0.0000000000000000 -57.165005282198301 -87.726774323660578 171.67083873969227 259.76550921814646 0.0000000000000000 0.0000000000000000 0.0000000000000000 0.0000000000000000 3.0175987179665653 3.0352628076770016 1.0176641459362372 1.0089707347514982 147.58335076544182 147.58334923971952 1.0087931972908768 
-89.059028700670567 -83.380515477154063 116.54044850827792 -89.059028700670552 -83.380515477154006 116.54044850827799 -42.178781983630365 -5.1684903307219205e-07 2.6251833181089544e-06 -1.2018223438295783e-06 0.0000000000000000 2.0356334326510073e-10 1.4414858195976878e-12 5.1148733914985194e-08 2.7796638132328459e-05 -3.8267566179712843e-13 -1.7800338136798318e-13 5.6408639837501158e-13 0.0000000000000000 -88.898344731952406 -83.377922378373768 117.11292023788836 283.91631954144174 0.0000000000000000 0.0000000000000000 0.0000000000000000 0.0000000000000000 3.0176546085977360 3.0353634134743839 1.0177088370784266 1.0089970357299072 141.55295881132585 141.55295890577597 1.0088154463767756 
-97.770434596088606 -66.884080942187282 107.58796017671040 -97.770434596088620 -66.884080942187296 107.58796017671035 -46.589029931408142 -7.0427756162079187e-08 7.7233250310458068e-07 -5.0778455720664536e-06 -47.342622115561262 2.2136751806622887e-10 -9.7656466246931473e-12 5.6484493526909318e-08 2.8621182390967590e-05 -4.2948002026403726e-14 -1.6874687922021879e-13 1.2438801844377451e-12 2.8590852107464249e-05 -97.595692787999965 -66.901700632800015 108.22015140479995 322.25788568967050 0.0000000000000000 0.0000000000000000 0.0000000000000000 0.0000000000000000 3.0198169320315951 3.0397304320274396 1.0199136362599697 1.0095797232997457 157.49940216142951 157.49940215065547 1.0099079841503851 
-79.808288634089081 -67.514603047100820 107.98593838072676 -79.808288634089024 -67.514603047100778 107.98593838072674 -45.675684695502902 -1.4676705224570606e-06 1.2266722592311914e-06 -2.3775127821489665e-06 0.0000000000000000 1.8464281145713635e-10 -9.3437896309112034e-12 5.6247297708367228e-08 2.8520523945146429e-05 2.7917216297839731e-13 1.1678939301776848e-13 1.2092286099848888e-12 0.0000000000000000 -79.662532843379708 -67.531450170133141 108.61547480962874 295.38956150422752 0.0000000000000000 0.0000000000000000 0.0000000000000000 0.0000000000000000 3.0183272449627214 3.0367281986532313 1.0184010361733546 1.0091922670946050 150.42690893748207 150.42690891906753 1.0091583967151865 
-94.647490107213471 -81.840209337622852 107.99684453945075 -94.647490107213486 -81.840209337622824 107.99684453945068 -45.315868355178218 -2.0411757228878221e-06 1.5779359687095642e-06 -3.7644130225853298e-06 0.0000000000000000 2.1498823207788395e-10 3.9693248687910904e-13 5.6240800017093313e-08 2.8834499134865410e-05 4.7446081050694905e-13 3.6554864493924890e-13 1.7443116062421626e-12 0.0000000000000000 -94.477787882002133 -81.839503548705352 108.62630821647583 293.80807890400462 0.0000000000000000 0.0000000000000000 0.0000000000000000 0.0000000000000000 3.0182737947824494 3.0366162937712176 1.0183425697252451 1.0091677505215357 148.87630596049755 148.87630587195270 1.0091294038104122 
-47.402038927417131 -126.01318299593240 138.26328858077741 -47.402038927417145 -126.01318299593234 138.26328858077744 -26.944294415869322 -1.6892198499255776e-07 1.3319070578839354e-06 4.5588946187145149e-06 0.0000000000000000 6.6126152205141420e-09 -3.7078563474738323e-09 4.8685116833632793e-08 2.5270961492900912e-05 4.4093819843497486e-14 -2.3544601778419696e-13 9.2951371629734897e-13 0.0000000000000000 -47.292355390977058 -125.96433165720771 138.67232254046354 244.31333887135355 0.0000000000000000 0.0000000000000000 0.0000000000000000 0.0000000000000000 3.0213759602399519 3.0428782455161882 1.0215025100088937 1.0107697877705635 129.41354724234873 129.41366440722425 1.0106940573809629 
-34.275417815845032 -140.50785981658819 138.79591047878418 -34.275417815845010 -140.50785981658825 138.79591047878418 -27.110338389857265 2.1355473353315431e-06 -6.5899686369209835e-07 2.3316147044346878e-06 0.0000000000000000 2.6639964410241188e-09 -3.0390122297980097e-10 4.1394772519974827e-08 2.4307081353188105e-05 -5.2328301450898118e-13 -1.6685324030406209e-13 1.3144428406453900e-12 0.0000000000000000 -34.196989160350306 -140.43319657724166 139.21506628885933 210.16870282748488 0.0000000000000000 0.0000000000000000 0.0000000000000000 0.0000000000000000 3.0209290896817489 3.0419739618708941 1.0210450543217098 1.0104846623211861 128.23655746962052 128.23318154095111 1.0104678046731097 
-31.015247005030758 -127.69803057563111 142.32819387577550 -31.015247005030773 -127.69803057563109 142.32819387577550 -29.137527307069195 1.4788215641343257e-06 6.9418739944863850e-07 4.2020267935855317e-06 0.0000000000000000 8.4898390401155766e-11 3.1556215973616020e-11 3.5778977114375721e-08 2.4377057349161716e-05 5.1846464319514214e-14 -2.6224980105137963e-13 1.3495876411813392e-12 0.0000000000000000 -30.948229910445860 -127.64113600963313 142.72864290474456 229.21992526850030 0.0000000000000000 0.0000000000000000 0.0000000000000000 0.0000000000000000 3.0202828776163422 3.0406698170967665 1.0203870923444607 1.0102178798552213 129.38496638794606 129.38487202101354 1.0101420488636572 
-48.516566008904853 -130.96090540507183 146.50160065508766 -48.516566008904867 -130.96090540507191 146.50160065508769 -28.119734475178891 1.2086259579585692e-06 3.7679662936132334e-06 -3.9175608392539973e-07 0.0000000000000000 6.5642208480647044e-09 -3.8989936179619535e-09 4.2475547871057184e-08 2.4028626520524091e-05 -2.5613084672528232e-14 -1.3211973967981218e-12 1.6404567354981849e-12 0.0000000000000000 -48.406431667502837 -130.90513559487593 146.85896726379221 225.63426853136377 0.0000000000000000 0.0000000000000000 0.0000000000000000 0.0000000000000000 3.0214830885384170 3.0430909286764414 1.0216080525014180 1.0106812283470665 130.86256078700077 130.86292117226591 1.0107462703667134 
-53.113532657095618 -84.931234684718419 76.845613105076296 -53.113532657095647 -84.931234684718433 76.845613105076325 -44.867632568668647 -1.1418155832324285e-06 9.2499845326099693e-06 -1.9514406340803985e-05 0.0000000000000000 2.3964641694127022e-10 2.7551328562263409e-09 8.5122277566528721e-08 3.4735293261340950e-05 1.0348888836727797e-12 1.6152409765763927e-11 3.1591312828911290e-12 0.0000000000000000 -53.009977022357148 -84.940192361847963 77.707205907375524 356.07450292316213 0.0000000000000000 0.0000000000000000 0.0000000000000000 0.0000000000000000 3.0186326386464986 3.0373399202957567 1.0187073498140260 1.0093616845555269 144.80011865226422 144.80011995060389 1.0093098457917831 
-40.394819930025697 -85.654246969893293 66.572763306403942 -40.394819930025712 -85.654246969893350 66.572763306403900 -56.539480488390367 -3.9101950901504075e-07 2.9175600570043763e-06 -1.0046977850300237e-05 0.0000000000000000 3.9931261321343552e-10 3.9019070977394477e-11 8.3348028333958537e-08 3.3809255946845011e-05 1.7589852788359859e-12 1.5025852400675462e-12 -3.2594307764761676e-12 0.0000000000000000 -40.313282635619565 -85.652866469445740 67.489144002613742 334.72004880612383 0.0000000000000000 0.0000000000000000 0.0000000000000000 0.0000000000000000 3.0179661938944808 3.0360105595244264 1.0180444610688573 1.0091900451275067 168.21114510276576 168.21114537843269 1.0089817471197202 
-43.013271385467668 -94.074371294410625 82.455654316393179 -43.013271385467661 -94.074371294410582 82.455654316393122 -39.624902610375095 9.6919662697115806e-06 3.0578073068345500e-06 -9.2549371192273409e-06 0.0000000000000000 8.9713434974251897e-10 -6.7933611342747435e-10 8.3236443584143484e-08 3.3473085067946200e-05 7.7541661774398008e-12 2.2076120959945585e-12 1.2814611767170918e-11 0.0000000000000000 -42.930125987095458 -94.071309017270835 83.274511392489799 283.94561953274422 0.0000000000000000 0.0000000000000000 0.0000000000000000 0.0000000000000000 3.0191163850277012 3.0383165905487619 1.0192003019890334 1.0094531310352886 139.76567369772877 139.76566981121880 1.0095543433935104 
-45.035978046990174 -98.991438012456783 67.113374139915905 -45.035978046990152 -98.991438012456783 67.113374139915948 -49.943326338201395 5.6275210128580201e-06 5.1296516975065890e-06 -1.4639124018821503e-05 0.0000000000000000 1.1356043536081550e-10 1.2049958253435021e-11 8.0607734265214503e-08 3.4065724950615109e-05 -3.1391902249132258e-12 -1.4384031574898543e-12 -1.0182588482363017e-11 0.0000000000000000 -44.946335306532468 -98.969717126470769 68.015559797458934 339.42980011114588 0.0000000000000000 0.0000000000000000 0.0000000000000000 0.0000000000000000 3.0189080715451539 3.0379079954057411 1.0190000575849292 1.0094024357355631 158.06240574201328 158.06240647229552 1.0094551049619647 
-35.741669557704725 -100.85200941431319 74.497888082165062 -35.741669557704739 -100.85200941431320 74.497888082165034 -46.650329558410476 4.9366756612039954e-06 3.7826262778243760e-06 -8.1028690810396199e-06 0.0000000000000000 7.0380109832313443e-10 -1.3107591638960380e-09 8.0892015380827822e-08 3.3718010993372416e-05 4.7008524172619838e-12 -2.7268960333965389e-12 2.1577779245452293e-12 0.0000000000000000 -35.672109309640206 -100.83293553867907 75.360366609178811 338.44965823895870 0.0000000000000000 0.0000000000000000 0.0000000000000000 0.0000000000000000 3.0175457014013691 3.0351655667633120 1.0176199555469128 1.0091258936760470 149.11474717254529 149.11474316033411 1.0087714366927480 
-49.071948758890400 -112.02977331957325 64.463279274162176 -49.071948758890400 -112.02977331957324 64.463279274162204 -45.725394839300677 9.1621106773532750e-06 5.0562873177408741e-06 -9.4175450205771770e-06 -41.934468222504748 1.2181595662741351e-10 2.0901599895317702e-11 8.2187226801977431e-08 3.2496229546160775e-05 -3.0661185173064652e-12 3.4651806234497746e-12 -1.0003499967845451e-12 3.1995695890860833e-05 -48.975793059600008 -111.99207679200002 65.383142959360015 326.57209562220959 0.0000000000000000 0.0000000000000000 0.0000000000000000 0.0000000000000000 3.0191977344167400 3.0384782171291396 1.0192805806333918 1.0095244163124328 151.98516918602689 151.98517080387165 1.0095940263455638 
-25.297326784665987 -110.51771517005139 66.563804682978642 -25.297326784665987 -110.51771517005137 66.563804682978613 -52.576989901383151 1.7355674753800984e-06 2.5782524054457617e-06 -9.1413473611489247e-06 0.0000000000000000 7.3210052603522868e-11 1.9885329494151449e-11 8.0935284252348096e-08 3.2674150464462042e-05 3.0917521513102047e-13 -1.0857117180725977e-12 2.0968963762987629e-14 0.0000000000000000 -25.239536857883341 -110.48187134057846 67.469656361758609 349.35568362690350 0.0000000000000000 0.0000000000000000 0.0000000000000000 0.0000000000000000 3.0185168132643230 3.0371150766777508 1.0185983669950724 1.0093250955610475 163.55510515675897 163.55510172949741 1.0092562368707398 
-44.164088495663592 -111.30541054321684 75.606874090148168 -44.164088495663599 -111.30541054321688 75.606874090148224 -40.032215754813329 5.0437967965577006e-06 -3.9770824047386793e-06 -5.5460805359702148e-06 0.0000000000000000 1.1177780576132611e-10 2.0416487944707740e-11 7.5545528721576716e-08 3.2404473839522459e-05 -7.6386590174337716e-13 -1.8986748917931421e-12 5.1155298281180917e-12 0.0000000000000000 -44.075852747763513 -111.26860156453857 76.452402029906395 268.59635586333832 0.0000000000000000 0.0000000000000000 0.0000000000000000 0.0000000000000000 3.0197756830923725 3.0396514787742590 1.0198759448927026 1.0094120848195689 144.54266513046875 144.54265572520674 1.0098891010347304 
-58.385200290528076 -106.63269106191514 104.68212519149863 -58.385200290528033 -106.63269106191514 104.68212519149860 -23.545941532347324 1.7994142353174641e-06 9.1166497138254043e-06 -1.0171444240837304e-06 0.0000000000000000 5.7050040131045783e-09 -3.7367830549432788e-10 6.8811225301045544e-08 3.0320810437681612e-05 -1.2846773640642878e-12 -1.0893874050313143e-12 9.2298226304420716e-13 0.0000000000000000 -58.254647241440821 -106.62760994408018 105.33920711112118 241.62621693813244 0.0000000000000000 0.0000000000000000 0.0000000000000000 0.0000000000000000 3.0228718407637558 3.0458808759446798 1.0230092828034671 1.0113000417152185 127.45756440887168 127.45755299204072 1.0114391813017962 
-64.510914343595744 -90.074075648285572 95.961417441912587 -64.510914343595701 -90.074075648285557 95.961417441912559 -34.187117246262396 -4.0050041305335606e-06 3.1597300761661492e-06 5.5740843634242160e-06 0.0000000000000000 3.8698520353606618e-09 -3.7601962477884763e-09 7.3844517165463061e-08 2.9599603517367506e-05 1.5575595524094800e-12 -1.3447739707381068e-13 -4.1359652044383267e-12 0.0000000000000000 -64.370648572599308 -90.090304358695661 96.688480747766732 239.98138923263960 0.0000000000000000 0.0000000000000000 0.0000000000000000 0.0000000000000000 3.0203878710386807 3.0408703247295961 1.0204825481985795 1.0097870760893299 134.90743712270157 134.90743786519613 1.0101889199659870 
-76.077939472408190 -99.704606770251971 100.63470719432949 -76.077939472408175 -99.704606770251900 100.63470719432951 -31.769014766319536 -7.1493759575798064e-06 8.1267602348962890e-06 -1.7613833699031013e-06 0.0000000000000000 5.7689780157696986e-09 -1.2204301152034998e-09 6.9480906808288894e-08 3.0369304751090405e-05 2.2552322854918498e-12 -2.0045685000895255e-12 1.4792839270168491e-12 0.0000000000000000 -75.913673002404863 -99.702254402691466 101.32606574872912 288.13617662859207 0.0000000000000000 0.0000000000000000 0.0000000000000000 0.0000000000000000 3.0211176982593320 3.0423440953968703 1.0212265494413695 1.0102587168626136 134.16393142094194 134.16392875843610 1.0105577503371415 
-55.287627099730329 -93.574543438798841 102.65068871320733 -55.287627099730337 -93.574543438798798 102.65068871320729 -32.039236638885470 -4.6400732812081621e-07 4.2889791037100237e-06 1.9238037247109936e-06 0.0000000000000000 4.1297231412376707e-09 -2.8613337074750803e-09 7.1079781525913742e-08 2.9463853805916927e-05 8.9084890331355584e-13 3.4189418122090339e-13 4.8662391095794181e-13 0.0000000000000000 -55.164710769962618 -93.586508083202432 103.32606452766413 222.68531933077850 0.0000000000000000 0.0000000000000000 0.0000000000000000 0.0000000000000000 3.0206644738567032 3.0414213231493559 1.0207569516165949 1.0102631176297214 136.52283522364667 136.52283425028475 1.0103252420844979 
-45.853740208371548 -176.01189797653862 155.33547390241088 -45.853740208371548 -176.01189797653851 155.33547390241083 -29.325359233098276 -3.3865418096553261e-06 -4.5136920049297719e-06 8.3915795091021703e-06 0.0000000000000000 1.1523344431441096e-10 6.4391450504963656e-11 2.8026537313152741e-08 2.2616153253369296e-05 3.0591283835682601e-13 6.7857649934782324e-13 -6.2120462288006247e-13 0.0000000000000000 -45.762777822239421 -175.89580528354742 155.64915507299250 248.91339099022119 0.0000000000000000 0.0000000000000000 0.0000000000000000 0.0000000000000000 3.0206599705789006 3.0414171063967030 1.0207572630534119 1.0100675173991625 127.09601576730346 127.09455359104199 1.0103252556851958 
-51.535626857152003 -185.69076345162659 167.92400726816081 -51.535626857152003 -185.69076345162657 167.92400726816078 -31.790969135178397 1.5945104920171400e-07 -2.8572402765992818e-07 -1.0357398310655304e-07 -32.694907988602736 1.2684833392007100e-10 7.0970049281804406e-11 2.0523638788461082e-08 2.2272852865567106e-05 -6.3338108982864835e-14 3.3779171166691446e-13 3.3785362442435908e-13 2.2395151826677825e-05 -51.435495451599998 -185.56281141599996 168.15371392000000 294.81703600272857 0.0000000000000000 0.0000000000000000 0.0000000000000000 0.0000000000000000 3.0189864300095697 3.0380558834514679 1.0190695584157368 1.0095760296553680 128.18265912127939 128.19164903131613 1.0094897907735361 
-42.759822554226346 -171.29148821363864 166.02830940141970 -42.759822554226353 -171.29148821363864 166.02830940141973 -31.264212120313569 4.6590729268193918e-07 -5.1195152961732869e-07 2.5024736613061637e-06 0.0000000000000000 4.7022597037033163e-10 -1.8079538893391972e-09 2.2398328087043761e-08 2.2394338953515628e-05 -2.2092797566909232e-13 -4.4504590899224339e-13 3.1361064762735710e-13 0.0000000000000000 -42.672974891599750 -171.18173466392949 166.26923354793541 271.88244999766295 0.0000000000000000 0.0000000000000000 0.0000000000000000 0.0000000000000000 3.0191359815942374 3.0383579295189378 1.0192220606813960 1.0096503674073660 127.23004377093261 127.23599521197865 1.0095652938048321 
-59.495711738285763 -178.13607881126612 157.45104727883052 -59.495711738285763 -178.13607881126612 157.45104727883060 -32.745345250689020 -2.3766671049235621e-06 -7.2743676553489016e-07 -6.1350986800663803e-08 0.0000000000000000 1.4312041482500426e-10 6.5827274187135743e-11 2.6765634597580860e-08 2.2837960451910127e-05 4.6509527930400552e-13 -1.1163242441081725e-14 4.8983640109147361e-13 0.0000000000000000 -59.382734921100123 -178.01738339707751 157.75061606229067 243.94852352315442 0.0000000000000000 0.0000000000000000 0.0000000000000000 0.0000000000000000 3.0190165032421010 3.0381141228155588 1.0190977163923731 1.0096326407197966 129.59445659276932 129.59469194245955 1.0095037380215290 
-30.729055020111247 -102.74254087057582 94.597670889398756 -30.729055020111229 -102.74254087057581 94.597670889398771 -28.596558281866013 3.0210825151513741e-06 5.4362625564291468e-06 -1.4032715078341845e-05 0.0000000000000000 -7.3194735680971872e-10 5.8058389093507157e-10 7.1218762611374135e-08 3.1702065078251208e-05 -3.5551918234375727e-12 8.6699079800366933e-12 -7.4616849314202021e-13 0.0000000000000000 -30.660097366607719 -102.72526557899965 95.328291536857705 204.58703120518373 0.0000000000000000 0.0000000000000000 0.0000000000000000 0.0000000000000000 3.0207311185024266 3.0415564153057910 1.0208253928024755 1.0102212359123366 127.85296172978856 127.85296984282452 1.0103589661510124 
-18.851609842719068 -110.94231521571092 92.622011844040827 -18.851609842719075 -110.94231521571098 92.622011844040856 -35.119732416510757 4.9058543769328607e-06 7.9315531985957698e-07 -1.1830435856515595e-05 0.0000000000000000 6.0032107757068687e-11 2.0167992276221011e-11 6.5404352600495486e-08 3.1608011437719634e-05 5.2829343176648758e-12 9.6298110262130606e-14 -2.0939704899722228e-12 0.0000000000000000 -18.804221549666405 -110.90595113131390 93.354036648627854 267.24800799435923 0.0000000000000000 0.0000000000000000 0.0000000000000000 0.0000000000000000 3.0191453423282391 3.0383710224754865 1.0192257739459982 1.0096508768534176 136.38229885058720 136.38222333962074 1.0095672473903008 
-33.884292617615557 -104.73420905844691 84.203458081609170 -33.884292617615536 -104.73420905844692 84.203458081609170 -37.620112045727993 4.5061218993993911e-06 -6.3515722416158042e-08 -1.0101691881430832e-05 0.0000000000000000 -1.7500725584093066e-09 -3.6113996108259158e-10 7.7371109430822156e-08 3.1494287823485837e-05 -2.4408525194319721e-12 2.4479147273499839e-13 -7.5849637196048392e-13 0.0000000000000000 -33.815892125380543 -104.71065599625929 85.007910193808286 270.69679205096202 0.0000000000000000 0.0000000000000000 0.0000000000000000 0.0000000000000000 3.0182237329857129 3.0365288591149278 1.0183052296730428 1.0093826295014274 135.88152301933545 135.88154688681109 1.0091108465837098 
-18.968761065536352 -100.40313175288077 94.679765886572270 -18.968761065536349 -100.40313175288073 94.679765886572284 -32.435316747105610 1.5851954581270555e-06 3.5207757879712119e-08 -3.5216615818836129e-06 0.0000000000000000 6.0272658392035439e-11 1.3007248056418067e-11 6.4177908321028099e-08 3.0170769699578038e-05 2.2342579563109061e-12 2.1457579599763943e-12 7.9215890887926275e-13 0.0000000000000000 -18.921183722278450 -100.37968114352928 95.398064000337470 185.31956687594098 0.0000000000000000 0.0000000000000000 0.0000000000000000 0.0000000000000000 3.0194683305943362 3.0390163183458707 1.0195480766305738 1.0096781121205798 132.00398156277203 132.00398874598835 1.0097269388765446 
-31.189439009251821 -118.01972485296498 173.02507399770761 -31.189439009251824 -118.01972485296496 173.02507399770761 -37.172402022724278 5.0019677069634154e-06 4.8467704186895237e-06 3.2516213523837613e-06 0.0000000000000000 1.3758737857994018e-09 -1.1326741296936371e-09 1.6500559235402826e-08 2.4435720230710079e-05 -4.3031786673286378e-14 -1.6348118582609050e-13 -6.7126602188204533e-13 0.0000000000000000 -31.124431206993112 -117.97934695114738 173.21200361760444 258.17126679857051 0.0000000000000000 0.0000000000000000 0.0000000000000000 0.0000000000000000 3.0192394921582366 3.0385610381428596 1.0193216372761993 1.0096887662320364 138.17923107778236 138.17927321268996 1.0096146270869435 
-30.708763322008949 -133.19527718011415 164.56056662257328 -30.708763322008959 -133.19527718011420 164.56056662257322 -32.579013295985362 4.7758261482950763e-06 -2.0384209083806756e-08 7.0828282486321711e-07 0.0000000000000000 1.7887112622534699e-09 -1.1484782791416623e-09 2.2449221781499188e-08 2.3250036829445766e-05 -3.9913399885847215e-13 -5.8322393843811537e-13 2.1627446283274895e-13 0.0000000000000000 -30.642131568542830 -133.13454878399213 164.80820313575899 262.24283076768535 0.0000000000000000 0.0000000000000000 0.0000000000000000 0.0000000000000000 3.0197949004998192 3.0396839108833795 1.0198891389926465 1.0099753880786424 132.51370712323936 132.51387309652102 1.0098955510008771 
-42.766480753439566 -120.14136238807262 163.46256531849039 -42.766480753439538 -120.14136238807261 163.46256531849033 -29.921425613694680 7.7883298517197760e-06 5.0582685227136213e-06 3.3303398906749736e-06 0.0000000000000000 3.6838008833572381e-09 -3.5695940651126484e-09 2.3960244043093254e-08 2.3868021120537088e-05 -7.5134418432038982e-13 -9.6799607561552403e-13 -3.4847844695176874e-12 0.0000000000000000 -42.676694985445003 -120.10595080876966 163.70375490782192 268.28772502602959 0.0000000000000000 0.0000000000000000 0.0000000000000000 0.0000000000000000 3.0219268016343781 3.0439758135133896 1.0220492061113413 1.0105990049348499 132.24926477838608 132.24945120143445 1.0109645042648590 
-23.802701336257655 -114.27441430410225 161.54048218394516 -23.802701336257655 -114.27441430410225 161.54048218394507 -36.640465663080136 2.4509623582945722e-06 1.8250962239613465e-06 3.2796862447648786e-06 0.0000000000000000 7.0154746595330053e-11 2.2425797330249967e-11 2.4328277614671379e-08 2.3950306137024808e-05 -3.4820831520403451e-13 -5.1287784512649316e-13 5.3772923174895365e-14 0.0000000000000000 -23.747323328369049 -114.23396745764113 161.81277151251504 321.01516800445251 0.0000000000000000 0.0000000000000000 0.0000000000000000 0.0000000000000000 3.0189185892490262 3.0379184070319347 1.0189999115944339 1.0096137229537294 137.08221526778655 137.08216996844746 1.0094553400741086 
-6.4908894413847564 -105.01665624329054 108.70677151471985 -6.4908894413847555 -105.01665624329054 108.70677151471983 -23.636211905351779 1.6012932609686013e-07 1.4142676218686857e-07 -6.5906484704337130e-06 -20.943798763015362 3.4764333772807625e-11 1.6145515480125990e-11 5.5817671817948167e-08 2.5678229489942414e-05 -1.5339659239664564e-13 -1.3527567109616588e-14 3.5672744914469967e-12 2.4672399936100676e-05 -6.4634479885999987 -104.98755276399999 109.33149947120000 327.67017865987640 0.0000000000000000 0.0000000000000000 0.0000000000000000 0.0000000000000000 3.0191738343649557 3.0384344064947588 1.0192606849475605 1.0096859752160541 112.41649823265993 112.41662055101550 1.0095844631228259 
-11.842916602722864 -97.136328392587970 100.75994435855964 -11.842916602722864 -97.136328392587970 100.75994435855965 -30.277697385210011 -8.1944518496694565e-07 -1.2025965825030320e-08 -7.2942893702835705e-06 -29.067556588960620 4.5704662277046282e-11 1.0785358717235738e-11 6.0554056435790926e-08 2.8421075236180277e-05 3.9702781972967510e-13 -3.6276290336153268e-13 2.0810975458873912e-12 2.8279724013603585e-05 -11.806838433999999 -97.116880539599975 101.43768333439998 212.90238721710071 0.0000000000000000 0.0000000000000000 0.0000000000000000 0.0000000000000000 3.0190065796448420 3.0380952549544880 1.0190887795639172 1.0095797232997463 124.99488368954556 124.99487745204468 1.0094992964550296 
-15.892217277899528 -110.39579723724678 102.43083372962013 -15.892217277899531 -110.39579723724681 102.43083372962018 -27.355480623699144 3.2841532106386643e-06 -2.5579249465754368e-09 -1.3639868987563630e-05 0.0000000000000000 5.3983685577296825e-11 1.9797954942113449e-11 5.9558193044040315e-08 2.7705951649689000e-05 -1.4976899937506174e-12 4.2808314046295224e-13 4.9094367059436169e-12 0.0000000000000000 -15.849604639409371 -110.36010279166017 103.09742667861765 236.22178992679409 0.0000000000000000 0.0000000000000000 0.0000000000000000 0.0000000000000000 3.0190439940567959 3.0381738150950635 1.0191299311444932 1.0096976661199479 121.13696105950844 121.13695320327633 1.0095196801618527 
-23.804960307644382 -99.556625860717119 101.60977695243243 -23.804960307644375 -99.556625860717119 101.60977695243245 -27.807847250067699 3.6074275193585723e-06 6.3036793413326025e-06 -8.9510772126630393e-06 0.0000000000000000 7.0158916870566301e-11 1.2425172002394902e-11 6.0047556926789980e-08 2.8293640956089539e-05 1.1626485960971289e-12 -1.6108011229610370e-12 4.0265641000641995e-12 0.0000000000000000 -23.749578654390465 -99.534212460059550 102.28184693721489 211.57004919854941 0.0000000000000000 0.0000000000000000 0.0000000000000000 0.0000000000000000 3.0197454653433216 3.0395857262455710 1.0198403781979197 1.0099167382603622 123.65243872570086 123.65240899131611 1.0098714106372173 
-54.212753347870418 -108.38036985763914 113.25224935431355 -54.212753347870397 -108.38036985763911 113.25224935431352 -17.192252180375451 3.4999263313384236e-06 1.1792879393335383e-05 -8.0871689805413658e-06 0.0000000000000000 8.3782033289052765e-09 -3.5604340609763513e-10 6.4484610237103619e-08 3.2048795722233712e-05 1.3615407721559639e-12 4.8522631599128129e-12 -9.3645924407920084e-12 0.0000000000000000 -54.087034329299712 -108.37170302860723 113.84396407125838 191.01171882188567 0.0000000000000000 0.0000000000000000 0.0000000000000000 0.0000000000000000 3.0248174497465694 3.0497949571420353 1.0249778171812307 1.0120609503989153 119.96935830067970 119.96933240224217 1.0124119026288623 
-41.792720399292918 -107.75953613058127 110.36207242778814 -41.792720399292897 -107.75953613058121 110.36207242778811 -20.524683415113280 -2.3457227058191121e-06 7.7897369734601679e-06 7.1220020663167582e-07 0.0000000000000000 7.0855407543851927e-09 -2.8538442541946154e-09 6.5075173083830478e-08 2.7076162852571817e-05 3.8485998386414227e-12 -4.7869779743318294e-12 -2.8454478950609512e-12 0.0000000000000000 -41.690910404717421 -107.74885629568415 110.97670241767709 270.34727434602189 0.0000000000000000 0.0000000000000000 0.0000000000000000 0.0000000000000000 3.0229952578057184 3.0461147582589798 1.0231196837381809 1.0114183544235862 123.55806136275079 123.55809195141411 1.0114938065637344 