# For a description of the Tecplot format see the Tecplot User's guide.
#
Variables=x,y,z,s_u,s_v,s_w,s_p,mono_f_vel_u,mono_f_vel_v,mono_f_vel_w,const,u_nu,v_nu,w_nu,p_nu,x_nu,y_nu,z_nu,const,u_ref,v_ref,w_ref,vol_ref,x_ref,y_ref,z_ref,const,I1,I2,I3,J,p1,p2,p3
Zone f=fepoint, n=1339, e=6475, et=brick, c=black
-60.4504 -70.2636 173.341 -60.450431424470224 -70.263569233648454 173.34144580125056 -194.16655558365773 1.2189351692157923e-06 1.2185414601948257e-06 6.5218419750165668e-07 -198.58323826397739 1.3843894075549201e-07 -5.4224911227862557e-09 6.7146293041275840e-05 0.0092372502354025401 -6.0282443297059873e-11 4.0118452610055309e-11 -1.4227779923417897e-10 0.0092840328700847102 -58.668039002000000 -70.473359259200009 176.35421013599998 215.13583165143561 0.0000000000000000 0.0000000000000000 0.0000000000000000 0.0000000000000000 3.3382141170673303 3.7012906945903912 1.3635953117114710 1.1668551784978451 2147.4040964654341 2147.4040962901058 1.1677333304687159 
-66.907700675775317 -76.320405762633484 181.90037852574994 -66.907700675775331 -76.320405762633499 181.90037852575000 -205.53733068414701 -1.9237886313900581e-05 -1.1171571946796019e-05 1.0895091707677925e-05 -207.10160242519567 1.5103590045306703e-07 -2.4369180007255409e-09 4.7341083568852582e-05 0.0095946555025262850 5.8025178057668438e-10 2.8361678093111537e-10 -4.9983813683759876e-10 0.0097607661293751518 -64.963123215600007 -76.414687385200040 184.02450960799996 253.42820447565578 0.0000000000000000 0.0000000000000000 0.0000000000000000 0.0000000000000000 3.3403078978016136 3.7059413097435798 1.3661708438499749 1.1668551784978465 2175.0328344000236 2175.0328343603442 1.1688399843242931 
-71.729271833447484 -71.395951590184083 174.32614453673762 -71.729271833447470 -71.395951590184069 174.32614453673759 -198.86049890479617 -8.3640167056547393e-06 -1.2510723789038506e-06 -1.4218354306738239e-06 -206.91296454346096 1.6044191575304015e-07 -4.8643131744796611e-09 6.4867718684524789e-05 0.0092996701494086273 2.7093969734835788e-10 1.6574507205842355e-10 -1.1383336430511397e-10 0.0094032772289602985 -69.663592608799988 -71.584146237200002 177.23667228800005 218.29881668600640 0.0000000000000000 0.0000000000000000 0.0000000000000000 0.0000000000000000 3.3414806379544757 3.7083789567857983 1.3674380873931680 1.1668551784978451 2169.7297122292211 2169.7297120818180 1.1693845622658954 
-58.908673904915119 -87.852416776818956 168.11548808588776 -58.908673904915091 -87.852416776819013 168.11548808588768 -172.32932686051578 -9.7360988155488302e-06 1.9607035855147129e-05 3.8646511870608219e-05 0.0000000000000000 1.3543125731985128e-07 3.2475151456878848e-09 7.9239061008706826e-05 0.0088849400404357286 3.4035193747634834e-10 -6.2471022595250465e-10 -5.8928233433522691e-10 0.0000000000000000 -57.165005282198301 -87.726774323660578 171.67083873969227 259.76550921814646 0.0000000000000000 0.0000000000000000 0.0000000000000000 0.0000000000000000 3.3284007072439148 3.6795007420675749 1.3515287134497600 1.1637271498096891 2064.0155072856728 2064.0155080295453 1.1625493574519232 
-91.459583490434582 -83.419016573572804 107.23682803483526 -91.459583490434596 -83.419016573572819 107.23682803483523 -128.39440169148602 1.2073590384605205e-05 3.1722516206982411e-05 -1.7234130510540825e-05 0.0000000000000000 1.9893216451905002e-07 1.0621765689222682e-09 0.00022011113634334831 0.0081760469167923393 -3.2181448186857831e-10 -1.2138426146008719e-09 1.2444913381553394e-10 0.0000000000000000 -88.898344731952406 -83.377922378373768 117.11292023788836 283.91631954144174 0.0000000000000000 0.0000000000000000 0.0000000000000000 0.0000000000000000 3.3313962043195477 3.6852893295989828 1.3543152076187777 1.1646452677834906 1988.7385515111960 1988.7385359867351 1.1637498767430012 
-100.38100793284045 -66.622472162645863 97.313798242482036 -100.38100793284046 -66.622472162645863 97.313798242482022 -181.76961487599672 7.1568938123730113e-06 2.0471400415572191e-05 -8.3296229081108653e-05 -193.12472347589753 2.1633624980310626e-07 -7.2172960940974917e-09 0.00024307284081004352 0.0093557752812017045 -4.5613198441203439e-10 -3.8347950440439534e-10 1.0870783945838052e-09 0.0093085062575103631 -97.595692787999965 -66.901700632800015 108.22015140479995 322.25788568967050 0.0000000000000000 0.0000000000000000 0.0000000000000000 0.0000000000000000 3.3390654440738632 3.7034698327551565 1.3649426993993601 1.1668551784978465 2127.1891558664124 2127.1891462517883 1.1683116832451714 
-81.985822362652442 -67.264464983264347 97.754921361429467 -81.985822362652456 -67.264464983264347 97.754921361429467 -181.59393646101861 -1.3627630783273815e-05 2.0216448558262780e-05 -3.4278321793509922e-05 0.0000000000000000 1.8045057670335038e-07 -6.9008314618201894e-09 0.00024205209020777832 0.0092079649960104121 6.2857922048057173e-10 -5.8678206090256436e-10 6.3512022701013610e-10 0.0000000000000000 -79.662532843379708 -67.531450170133141 108.61547480962874 295.38956150422752 0.0000000000000000 0.0000000000000000 0.0000000000000000 0.0000000000000000 3.3326504946461153 3.6888376720661751 1.3566531235080992 1.1648994352310746 2098.0426743630210 2098.0426726774726 1.1647503265922632 
-97.182774073713134 -81.850688555526233 97.767009859501741 -97.182774073713091 -81.850688555526190 97.767009859501741 -163.05308191413644 -2.0361255716651776e-05 3.0356592248625656e-05 -6.0800614788214207e-05 0.0000000000000000 2.1009707928953955e-07 2.8910296379081051e-10 0.00024202411765372744 0.0091470895667940359 1.1033895594652308e-09 -7.1198259406517438e-10 1.1381637617314248e-09 0.0000000000000000 -94.477787882002133 -81.839503548705352 108.62630821647583 293.80807890400462 0.0000000000000000 0.0000000000000000 0.0000000000000000 0.0000000000000000 3.3334362501714123 3.6901580333382351 1.3571773271626677 1.1650401590118884 2052.6151680663311 2052.6152116224116 1.1649758375991117 
-48.832153665804249 -126.81832460402438 131.32014230261717 -48.832153665804277 -126.81832460402438 131.32014230261714 -46.003947678229110 1.3381406801481250e-05 3.7629411153530418e-06 1.3238165266185720e-05 0.0000000000000000 4.0307621642061339e-06 -1.1725020443937985e-06 0.00016266773903975940 0.0053412914079804183 -4.1672157850403791e-10 -1.8981510555055803e-10 -5.9874604267032065e-10 0.0000000000000000 -47.292355390977058 -125.96433165720771 138.67232254046354 244.31333887135355 0.0000000000000000 0.0000000000000000 0.0000000000000000 0.0000000000000000 3.3450114809680249 3.7170145979025766 1.3726057078149079 1.1719970481457518 1926.4636744563247 1926.4647399332239 1.1715822716966360 
-35.370276111322333 -141.59020371104617 131.89977696434588 -35.370276111322340 -141.59020371104623 131.89977696434596 -44.235523022554190 1.6690145996116907e-05 6.3681445788350641e-06 8.1866194206840149e-06 0.0000000000000000 1.5382224156017939e-06 5.1815501406272019e-07 0.00016300329361782596 0.0054263335302433624 -1.1898193405604170e-09 2.1363793935863390e-10 4.2745782823758905e-11 0.0000000000000000 -34.196989160350306 -140.43319657724166 139.21506628885933 210.16870282748488 0.0000000000000000 0.0000000000000000 0.0000000000000000 0.0000000000000000 3.3433021048252320 3.7132229626535742 1.3705039885316241 1.1708096325724449 1915.1568979738565 1915.1267655708702 1.1706862291017412 
-32.016455829316421 -128.54277401071244 135.82022921693905 -32.016455829316428 -128.54277401071246 135.82022921693900 -62.570839162991888 1.3667422256755630e-05 2.9300639910520718e-06 2.7292719776270974e-05 0.0000000000000000 8.2969420667211593e-08 2.3304869145590604e-08 0.00015396968314718151 0.0057656605467951228 -6.4039386379240786e-10 -1.3947468657036578e-10 -4.9199922279116745e-11 0.0000000000000000 -30.948229910445860 -127.64113600963313 142.72864290474456 229.21992526850030 0.0000000000000000 0.0000000000000000 0.0000000000000000 0.0000000000000000 3.3391555182373480 3.7038133728978724 1.3651988482931825 1.1691153557254785 1929.0810443830765 1929.0813436822796 1.1684173056511191 
-49.974069471771152 -131.85222229576405 140.44622052426712 -49.974069471771152 -131.85222229576405 140.44622052426712 -41.884252182385140 1.9358378820155217e-05 3.8742210062372773e-05 -1.7898208924424121e-05 0.0000000000000000 3.7682189203350610e-06 -1.4138123471740137e-06 0.00014210422843889811 0.0053135018000939303 -6.5979556194907659e-10 -1.8112245924404937e-09 4.4261168308454665e-10 0.0000000000000000 -48.406431667502837 -130.90513559487593 146.85896726379221 225.63426853136377 0.0000000000000000 0.0000000000000000 0.0000000000000000 0.0000000000000000 3.3476654750330019 3.7227038007215993 1.3756498347062407 1.1726022445474802 1922.3258100871533 1922.3263592346780 1.1728808306947434 
-54.640963832456769 -84.926522350763733 63.137164494778048 -54.640963832456755 -84.926522350763719 63.137164494778055 -157.26312989721976 -6.7314607119891136e-06 0.00014613256809680039 -0.00016630033219280357 0.0000000000000000 -9.6183565996791383e-08 -2.6517202507228362e-06 0.00032964164968703809 0.011208603432719066 9.9416766815210235e-10 4.6545297612944696e-09 3.7920801744607275e-09 0.0000000000000000 -53.009977022357148 -84.940192361847963 77.707205907375524 356.07450292316213 0.0000000000000000 0.0000000000000000 0.0000000000000000 0.0000000000000000 3.3401891554638903 3.7054620976517332 1.3657825262134873 1.1677341825486545 2024.9845566474537 2024.9845606135148 1.1686415336151434 
-41.608893426817907 -85.709618636478297 51.792962682416942 -41.608893426817907 -85.709618636478339 51.792962682416977 -302.75654695818088 1.7146737611396934e-05 3.7289555382909158e-05 -0.00012343358100041452 0.0000000000000000 -4.6962865805130066e-07 -8.9509623269601047e-07 0.00035124389652596322 0.012956757387981145 1.4258336694682350e-10 -4.2826961039493483e-10 -2.6853815756689508e-10 0.0000000000000000 -40.313282635619565 -85.652866469445740 67.489144002613742 334.72004880612383 0.0000000000000000 0.0000000000000000 0.0000000000000000 0.0000000000000000 3.3292382925652375 3.6823907044555817 1.3536428803760714 1.1647393076612553 2294.1499423022110 2294.1499430183017 1.1634531204029053 
-44.262312248928332 -94.273684002693130 69.388431654430050 -44.262312248928318 -94.273684002693187 69.388431654430008 -120.03979520055844 0.00013555179746871715 1.4906295887527978e-05 -6.6348873120035631e-05 0.0000000000000000 -1.5026607464145758e-06 -2.1841618648000463e-06 0.00031439162312905402 0.0096082516988646345 5.6083181516584561e-10 1.5335720733433340e-09 8.3267521323705365e-09 0.0000000000000000 -42.930125987095458 -94.071309017270835 83.274511392489799 283.94561953274422 0.0000000000000000 0.0000000000000000 0.0000000000000000 0.0000000000000000 3.3428827813028379 3.7116860545729327 1.3693545731486363 1.1679837587220003 1989.3440821448962 1989.3440536954417 1.1701900351188146 
-46.375205050716694 -99.313939388800407 52.451352383705590 -46.375205050716680 -99.313939388800449 52.451352383705611 -206.56521465023670 0.00016164470080008272 5.4005875874066691e-05 -0.00019774281531306374 0.0000000000000000 1.1098073082749238e-07 8.8972078593485532e-09 0.00034688369748892001 0.011371793859099248 -7.3910861813019677e-09 -2.8815457560543187e-09 -4.0302285444413302e-09 0.0000000000000000 -44.946335306532468 -98.969717126470769 68.015559797458934 339.42980011114588 0.0000000000000000 0.0000000000000000 0.0000000000000000 0.0000000000000000 3.3387027086859282 3.7035362871555262 1.3654134800704982 1.1672903852752681 2109.7761812288149 2109.7761932889102 1.1685007600016522 
-36.813578537237490 -101.19765273856704 60.592232120746104 -36.813578537237497 -101.19765273856700 60.592232120746083 -210.53781109849544 9.1741195191360675e-05 3.4968871295323787e-05 -8.0299653523954189e-05 0.0000000000000000 -1.8952566714855944e-06 -9.7838725949035084e-07 0.00033108536010421967 0.011238301506366630 1.1753359222120718e-10 -2.6114373240980838e-09 2.3630808104827324e-09 0.0000000000000000 -35.672109309640206 -100.83293553867907 75.360366609178811 338.44965823895870 0.0000000000000000 0.0000000000000000 0.0000000000000000 0.0000000000000000 3.3261568245683444 3.6755743201108868 1.3498903511017490 1.1645798384421253 2123.2431977570673 2123.2431926711452 1.1618451256076201 
-50.508476785525815 -112.58947341806811 49.513960082091479 -50.508476785525815 -112.58947341806811 49.513960082091479 -174.02966985646231 0.00017872064865777774 6.8611429310677214e-06 -0.00010607600093265220 -106.09794486855542 1.1904399754847361e-07 1.5441063094812080e-08 0.00035368076807884563 0.0098655167392826017 -6.3135473456257704e-09 3.2945663893638034e-09 2.3810897896515930e-09 0.0087805504522424048 -48.975793059600008 -111.99207679200002 65.383142959360015 326.57209562220959 0.0000000000000000 0.0000000000000000 0.0000000000000000 0.0000000000000000 3.3360299796721713 3.6961155653914797 1.3605658024385929 1.1669622395105246 2067.9114973569781 2067.9115122219928 1.1664245221556089 
-26.160685380080437 -111.04990728900464 51.842203966842916 -26.160685380080423 -111.04990728900471 51.842203966842874 -298.97970166481855 3.2231031472899370e-05 1.4506811785070019e-05 -9.4690778363514948e-05 0.0000000000000000 7.1545878443934896e-08 1.4682171922686390e-08 0.00034829325548102474 0.012039424404206635 -9.1903026348998957e-10 -1.3996466973816220e-09 8.5365357255130690e-10 0.0000000000000000 -25.239536857883341 -110.48187134057846 67.469656361758609 349.35568362690350 0.0000000000000000 0.0000000000000000 0.0000000000000000 0.0000000000000000 3.3317819737430199 3.6875975087128117 1.3563094051753897 1.1652451324886999 2304.3449806610879 2304.3449677627636 1.1646050035899527 
-45.482295588378989 -111.85193273817735 61.865634751471418 -45.482295588378982 -111.85193273817733 61.865634751471376 -138.02995159563929 8.7352784273823767e-05 -8.5233095406309076e-05 -4.6649675051588575e-05 0.0000000000000000 1.0923882642899231e-07 1.5077512571792795e-08 0.00032509922500167932 0.0090867501822046049 -3.2430675911038939e-09 1.0872924965531289e-09 3.3773709427676350e-09 0.0000000000000000 -44.075852747763513 -111.26860156453857 76.452402029906395 268.59635586333832 0.0000000000000000 0.0000000000000000 0.0000000000000000 0.0000000000000000 3.3411615239540287 3.7087497818465169 1.3681701892055076 1.1675219374291823 2047.1758379205946 2047.1758154345027 1.1696925955406592 
-60.077105449425005 -107.03931834434142 94.071456166386781 -60.077105449425048 -107.03931834434147 94.071456166386739 -32.380013114570581 2.0324894621890254e-05 3.9701968835491513e-05 7.6191372526906872e-06 0.0000000000000000 4.3463809942405157e-06 -5.4839686898187359e-06 0.00025330216628333097 0.0051190437369802791 -1.1773653027892294e-09 -3.4876944133228283e-09 3.1731038415149490e-10 0.0000000000000000 -58.254647241440821 -106.62760994408018 105.33920711112118 241.62621693813244 0.0000000000000000 0.0000000000000000 0.0000000000000000 0.0000000000000000 3.3512151398712535 3.7306176847544741 1.3800546406380645 1.1740611921063651 1916.7798124252929 1916.7794728544900 1.1747558205824518 
-66.383541208566868 -90.143615709728067 84.363935581552525 -66.383541208566854 -90.143615709728024 84.363935581552539 -75.662155753868106 -2.7558403359072725e-05 -9.8375269833758103e-06 6.1786260348221423e-05 0.0000000000000000 5.2706502678265994e-06 -7.0322436268760200e-06 0.00027862642893648781 0.0073628608451244450 1.3934146056632775e-09 -6.6678763556990484e-10 -2.7468689813121695e-09 0.0000000000000000 -64.370648572599308 -90.090304358695661 96.688480747766732 239.98138923263960 0.0000000000000000 0.0000000000000000 0.0000000000000000 0.0000000000000000 3.3473127000782679 3.7216656213955073 1.3749347356912756 1.1697198423567603 1950.7827521444297 1950.7828094996776 1.1725643068120244 
-78.238952951544263 -99.975004108083141 89.553408240753328 -78.238952951544263 -99.975004108083198 89.553408240753342 -64.187766171373951 -4.1082336201188882e-05 5.6482503732958170e-05 -1.5567225836160762e-05 0.0000000000000000 6.7512506897955463e-06 -4.9730013518348086e-06 0.00026555326502606974 0.0069949788614753578 3.0199971335821075e-09 -3.7976014685831831e-09 9.1647004436674292e-10 0.0000000000000000 -75.913673002404863 -99.702254402691466 101.32606574872912 288.13617662859207 0.0000000000000000 0.0000000000000000 0.0000000000000000 0.0000000000000000 3.3491354591200309 3.7259254880749073 1.3774157473012207 1.1715029513932245 1945.8978238366615 1945.8977363236031 1.1736420745826031 
-56.909933958902023 -93.726290674505890 91.804364647406089 -56.909933958902009 -93.726290674505890 91.804364647406132 -71.234994355470562 1.0442427889216353e-06 3.3311689203017641e-05 3.0904797869148348e-05 0.0000000000000000 3.9309717745476877e-06 -6.4040351026827887e-06 0.00025989261478030762 0.0069119898649960404 5.5528801285787560e-10 -1.3976087680860135e-09 1.8559808849585514e-11 0.0000000000000000 -55.164710769962618 -93.586508083202432 103.32606452766413 222.68531933077850 0.0000000000000000 0.0000000000000000 0.0000000000000000 0.0000000000000000 3.3459504985654762 3.7181257695045771 1.3727301603982032 1.1711345194770824 1976.7416202086899 1976.7416608472538 1.1716355957493070 
-47.212682195302477 -177.73558702390409 150.23763166879843 -47.212682195302477 -177.73558702390409 150.23763166879834 -37.168521793305295 -3.1286118419208418e-05 -2.1369927484747033e-05 5.5022463006486086e-05 0.0000000000000000 1.1261449817112634e-07 4.7553326609772739e-08 0.00012060808479930074 0.0052381635882655505 1.0726381377498569e-09 1.3159486204345677e-09 -1.5818023038020372e-09 0.0000000000000000 -45.762777822239421 -175.89580528354742 155.64915507299250 248.91339099022119 0.0000000000000000 0.0000000000000000 0.0000000000000000 0.0000000000000000 3.3455044852805047 3.7166126803137161 1.3716409490738974 1.1699225329981826 1885.7656974586503 1885.7607421695507 1.1711669208682201 
-53.031550359173870 -187.59053437359393 164.19089103132663 -53.031550359173856 -187.59053437359395 164.19089103132663 -47.477163406430130 6.7287002494922430e-06 -7.8994257876362452e-06 -7.9060789028664913e-06 -56.940760870306342 1.2396605231224100e-07 5.2411081252756730e-08 8.8320504829653146e-05 0.0054631444317112801 -2.1483884415386057e-10 2.1502483850847013e-10 4.2167335939373408e-10 0.0054761822239299115 -51.435495451599998 -185.56281141599996 168.15371392000000 294.81703600272857 0.0000000000000000 0.0000000000000000 0.0000000000000000 0.0000000000000000 3.3355213742403955 3.6954565389907916 1.3604385814451680 1.1669747306033733 1875.9364371066292 1875.9366132551693 1.1663799668317536 
-44.046265660084600 -172.92437088009717 162.08852053216509 -44.046265660084600 -172.92437088009723 162.08852053216512 -44.105371722748536 8.2433441979444863e-06 -7.3043292146806782e-06 7.0462743655210234e-06 0.0000000000000000 2.7589675635806784e-07 -4.9906745910732524e-07 9.3169182673273496e-05 0.0055103875196237696 -4.1870362817177487e-10 -1.5460849190814258e-10 -1.3833932369290732e-10 0.0000000000000000 -42.672974891599750 -171.18173466392949 166.26923354793541 271.88244999766295 0.0000000000000000 0.0000000000000000 0.0000000000000000 0.0000000000000000 3.3372867147544416 3.6992733728177472 1.3625002123810572 1.1676878989987822 1872.2106453112794 1872.2115677415370 1.1672623172238661 
-61.183540597572048 -179.89841182411854 152.58255487502009 -61.183540597572069 -179.89841182411863 152.58255487502004 -56.504191579541995 -8.8929276919612348e-06 -6.1131780769102426e-06 -3.3689677126710225e-06 0.0000000000000000 1.3986910873953207e-07 4.8619436032737440e-08 0.00011518197656812389 0.0058112224371804234 5.5312485812583413e-10 2.7259794883522732e-10 -3.4596103954978338e-11 0.0000000000000000 -59.382734921100123 -178.01738339707751 157.75061606229067 243.94852352315442 0.0000000000000000 0.0000000000000000 0.0000000000000000 0.0000000000000000 3.3369465903240942 3.6982090063808823 1.3617565794965185 1.1675894407214895 1891.2638657720602 1891.2647693871454 1.1669444526409132 
-31.710864747640283 -103.11902782270114 82.870427903974374 -31.710864747640276 -103.11902782270118 82.870427903974374 -70.409457421987781 2.6606685813513244e-05 5.9346870414165945e-05 -0.00011153154174881924 0.0000000000000000 -7.9710562906979535e-07 -1.0096749019126394e-06 0.00028068213326518028 0.0078032511503622407 -4.1494060004415962e-09 3.5938075896947962e-09 1.5501035181191876e-09 0.0000000000000000 -30.660097366607719 -102.72526557899965 95.328291536857705 204.58703120518373 0.0000000000000000 0.0000000000000000 0.0000000000000000 0.0000000000000000 3.3440476527270975 3.7129424566417257 1.3693959295069797 1.1693418227507355 1934.5796987359784 1934.5795985074217 1.1702079758102248 
-19.559572153917834 -111.48223183214667 80.725387772038374 -19.559572153917834 -111.48223183214667 80.725387772038360 -143.61971216347121 6.5852493467970024e-05 -6.4396758915121407e-07 -0.00011058379942034200 0.0000000000000000 5.8668305213949168e-08 1.4895276123638723e-08 0.00028145811091562223 0.0091171203454217722 1.2418026297169830e-09 -1.3468100670394328e-10 -5.0317834450140260e-10 0.0000000000000000 -18.804221549666405 -110.90595113131390 93.354036648627854 267.24800799435923 0.0000000000000000 0.0000000000000000 0.0000000000000000 0.0000000000000000 3.3343917213381782 3.6922010468158541 1.3582741153412408 1.1663849305520659 2051.3867755188180 2051.3864655981019 1.1654530277769592 
-34.911426708757297 -105.16403269177556 71.326143206779918 -34.911426708757297 -105.16403269177549 71.326143206779946 -140.75398048408346 7.6040942905033631e-05 -2.2942321513022587e-05 -8.4114869127859934e-05 0.0000000000000000 -2.5260168839685224e-06 -1.0986660703671420e-07 0.00030819974939825791 0.0088307985341366125 -3.9659716686367033e-09 4.7655746432631478e-10 4.4318270176114677e-10 0.0000000000000000 -33.815892125380543 -104.71065599625929 85.007910193808286 270.69679205096202 0.0000000000000000 0.0000000000000000 0.0000000000000000 0.0000000000000000 3.3305969842907688 3.6852176438115940 1.3551198352681595 1.1657094498652316 2012.1244722952108 2012.1245402580610 1.1640870408207356 
-19.679547711852702 -100.75131523843621 83.006223436171496 -19.679547711852702 -100.75131523843623 83.006223436171481 -109.64741438870900 2.9720987965139779e-05 -1.5319393134105294e-05 -2.3059063621998631e-05 0.0000000000000000 5.8902354549417169e-08 9.6057259924009486e-09 0.00027618030005527316 0.0079030829244083698 6.0178377640863040e-10 1.8114499482673300e-09 6.3593069256113302e-10 0.0000000000000000 -18.921183722278450 -100.37968114352928 95.398064000337470 185.31956687594098 0.0000000000000000 0.0000000000000000 0.0000000000000000 0.0000000000000000 3.3377608889310717 3.6993955018019156 1.3621080417859448 1.1669190020100875 2003.8206430825512 2003.8205629369545 1.1670987656851670 
-32.185506184553056 -118.66890543456216 169.86698826601727 -32.185506184553077 -118.66890543456215 169.86698826601730 -89.883877375089853 5.7075254004928234e-05 6.6560134034468596e-05 2.2773267713360430e-06 0.0000000000000000 -5.9860083166613405e-07 -1.4507394637760127e-06 7.2951592238863080e-05 0.0075885702388223198 -1.7822914050268898e-09 -1.8457639067046407e-09 -1.1144184752688036e-09 0.0000000000000000 -31.124431206993112 -117.97934695114738 173.21200361760444 258.17126679857051 0.0000000000000000 0.0000000000000000 0.0000000000000000 0.0000000000000000 3.3388267324758560 3.7021549568526377 1.3638249693598286 1.1683747537241458 1958.4409661214690 1958.4409311391496 1.1678289571207439 
-31.702576293835410 -134.13000144460381 160.46851255823776 -31.702576293835392 -134.13000144460378 160.46851255823782 -62.064385858360573 3.2441153643963996e-05 6.6965736287520823e-06 -6.0074368996924083e-06 0.0000000000000000 1.7601436817816614e-07 -9.4135651887912642e-07 9.6040018281716332e-05 0.0061443698913199981 -1.4639488282811891e-09 -4.5140115405433971e-10 1.3407796014560294e-11 0.0000000000000000 -30.642131568542830 -133.13454878399213 164.80820313575899 262.24283076768535 0.0000000000000000 0.0000000000000000 0.0000000000000000 0.0000000000000000 3.3410451431664812 3.7074705821326996 1.3669600396769612 1.1693590836858090 1927.0768403035322 1927.0770657382166 1.1691699920153205 
-44.056380950536948 -120.80800504119222 159.27861704201942 -44.056380950536976 -120.80800504119223 159.27861704201948 -39.394714756671178 6.9638408845204504e-05 2.4587558735947734e-05 -9.5903526104474378e-08 0.0000000000000000 7.9348461816735667e-07 -3.5195034423384552e-06 9.5704773959462753e-05 0.0059696972379487522 -2.7751578604056098e-09 -1.7053856408986884e-09 -2.2304518248022733e-09 0.0000000000000000 -42.676694985445003 -120.10595080876966 163.70375490782192 268.28772502602959 0.0000000000000000 0.0000000000000000 0.0000000000000000 0.0000000000000000 3.3514103848100660 3.7305331016721643 1.3797432754608852 1.1733351655277848 1917.7299747304426 1917.7299787291174 1.1746224003095593 
-24.630026819596495 -114.87494982833800 157.11532642349039 -24.630026819596505 -114.87494982833792 157.11532642349044 -104.33634872771397 2.5411319672755102e-05 2.1135055428485766e-05 1.8150489519415855e-05 0.0000000000000000 6.8559840915582968e-08 1.6567640592768385e-08 0.00010469322838346784 0.0071252140953926239 -1.0080533861468631e-09 -8.0147611949588325e-10 -6.3982601311468569e-10 0.0000000000000000 -23.747323328369049 -114.23396745764113 161.81277151251504 321.01516800445251 0.0000000000000000 0.0000000000000000 0.0000000000000000 0.0000000000000000 3.3349845666241400 3.6939720106296541 1.3594690143504657 1.1669118497315800 1979.8541696580064 1979.8540614796966 1.1659655643768303 
-6.9008538668718096 -105.44877085103006 98.553900192678753 -6.9008538668718122 -105.44877085103006 98.553900192678768 -36.846952412510511 3.7968040124856251e-06 -4.7462463528492123e-06 -5.9613525093480551e-05 -7.3208977421139130 3.3973442836732204e-08 1.1921224896127569e-08 0.00024020326820561880 0.0047436201894575179 -1.5825138965497439e-10 1.9506769531997290e-10 1.9968322969185036e-09 0.0038436560046988606 -6.4634479885999987 -104.98755276399999 109.33149947120000 327.67017865987640 0.0000000000000000 0.0000000000000000 0.0000000000000000 0.0000000000000000 3.3363552265928429 3.6972881930590948 1.3614395598425364 1.1671530538672270 1832.3687760750936 1832.3698203114839 1.1668077457849362 
-12.381910140313956 -97.425080856902682 89.745555550977087 -12.381910140313954 -97.425080856902682 89.745555550977087 -91.668850253339244 1.4517285747929936e-06 -1.2452685706553935e-05 -7.4672693817092570e-05 -84.054549165008297 4.4665988185865757e-08 7.9661404139841368e-09 0.00026058561217467974 0.0068076482859234745 8.3010712969992185e-11 -1.3339071454020219e-10 1.7101911398343186e-09 0.0066483984159945251 -11.806838433999999 -97.116880539599975 101.43768333439998 212.90238721710071 0.0000000000000000 0.0000000000000000 0.0000000000000000 0.0000000000000000 3.3366193359168186 3.6976966142557801 1.3615798315298364 1.1668551784978465 1955.3524670995589 1955.3523448879464 1.1668674040840734 
-16.528833203234573 -110.92577137536219 91.597586449503439 -16.528833203234573 -110.92577137536223 91.597586449503467 -76.359478358778119 2.4364402065479366e-05 -9.6022489232786779e-06 -0.00014286915285889040 0.0000000000000000 5.2755883106492256e-08 1.4620988864066931e-08 0.00025630004748222746 0.0061811140948128370 -1.6800929044167224e-09 6.0671508191578727e-10 3.5065894799945242e-09 0.0000000000000000 -15.849604639409371 -110.36010279166017 103.09742667861765 236.22178992679409 0.0000000000000000 0.0000000000000000 0.0000000000000000 0.0000000000000000 3.3345158759239202 3.6933136991468269 1.3592967420553279 1.1668537494475439 1924.7673693859695 1924.7678817074143 1.1658894666426389 
-24.632340251295830 -99.889409365279192 90.687518705263159 -24.632340251295819 -99.889409365279178 90.687518705263130 -65.460774956178625 3.6686855568548483e-05 5.1602502879208752e-05 -8.4743590760411467e-05 0.0000000000000000 6.8564354305244990e-08 9.1808651792035773e-09 0.00025840592714487792 0.0062669181867424850 -9.2458961590290957e-10 -2.4120552187665842e-09 2.6136191053621115e-09 0.0000000000000000 -23.749578654390465 -99.534212460059550 102.28184693721489 211.57004919854941 0.0000000000000000 0.0000000000000000 0.0000000000000000 0.0000000000000000 3.3374650893362152 3.6998046561963727 1.3628558883708299 1.1678712274746843 1911.1541168182960 1911.1537344341202 1.1674142654973598 
-55.811350273752304 -108.83277918402092 103.57906378495728 -55.811350273752304 -108.83277918402091 103.57906378495728 -18.582025413454442 9.9227268158715862e-06 1.7732870703204170e-05 -1.5682386892828945e-05 0.0000000000000000 5.1024314860654034e-06 -4.5498302802623183e-06 0.00022978773203238972 0.0042305589233528479 -1.1613066467701390e-09 -1.7598768791219671e-09 -5.6893500730075271e-10 0.0000000000000000 -54.087034329299712 -108.37170302860723 113.84396407125838 191.01171882188567 0.0000000000000000 0.0000000000000000 0.0000000000000000 0.0000000000000000 3.3523333246293423 3.7327348549325863 1.3810469538332664 1.1746435088663096 1894.8225375041848 1894.8221594352071 1.1751806280951707 
-43.084158363713080 -108.20575337509901 100.36838395616095 -43.084158363713101 -108.20575337509901 100.36838395616091 -25.799348266383308 -1.1452813266286176e-05 1.5310118697256875e-05 1.0484169203523976e-05 0.0000000000000000 4.1194447748826031e-06 -4.4131508679892948e-06 0.00023802317468238720 0.0040668079369938276 1.1911808275097467e-09 -2.9628863466996325e-09 -1.0983015988373566e-09 0.0000000000000000 -41.690910404717421 -107.74885629568415 110.97670241767709 270.34727434602189 0.0000000000000000 0.0000000000000000 0.0000000000000000 0.0000000000000000 3.3496984610106888 3.7262226840318098 1.3771092471483302 1.1732928252328805 1906.5417639750160 1906.5421537988000 1.1735029589119426 