# For a description of the Tecplot format see the Tecplot User's guide.
#
Variables=x,y,z,s_u,s_v,s_w,s_p,mono_f_vel_u,mono_f_vel_v,mono_f_vel_w,const,u_nu,v_nu,w_nu,p_nu,x_nu,y_nu,z_nu,const,u_ref,v_ref,w_ref,vol_ref,x_ref,y_ref,z_ref,const,I1,I2,I3,J,p1,p2,p3
Zone f=fepoint, n=3174, e=16683, et=brick, c=black
-25.3868 -154.914 106.931 -25.386777524051368 -154.91356036420450 106.93062255856461 -8.4501407834852422 7.5506536206731806e-06 -8.1346063766801955e-05 0.00013701946925916649 80.239953346750795 4.0905911435906717e-09 2.1195847299537718e-09 1.2972609637174060e-05 0.0024530818281353231 -1.0349073146397397e-08 -1.0210394996685468e-07 -4.0462983760879295e-08 -0.00056088048107703209 -24.903554063199991 -154.16086777200002 112.24023381839994 89.724962256112903 0.0000000000000000 0.0000000000000000 0.0000000000000000 0.0000000000000000 3.1704453319521892 3.3472869150952551 1.1769062967260939 1.0897959290887520 896.53752672086421 896.53077429670168 1.0848619302807039 
-38.152093832688749 -155.85882170292359 109.73371680234681 -38.152093832688728 -155.85882170292368 109.73371680234685 -20.922665081702615 6.9189062984747766e-05 0.00012509047413018014 -1.4686063547916906e-05 0.0000000000000000 -1.4288334937304668e-05 2.3849134565340473e-05 8.7406960211502212e-06 0.0016583218148760136 -2.2416473131608025e-09 -1.6600824883485756e-08 5.7942225088923118e-09 0.0000000000000000 -37.438273663334591 -155.10473791080037 114.93291110338620 89.036758072416930 0.0000000000000000 0.0000000000000000 0.0000000000000000 0.0000000000000000 3.2105563268960635 3.4334988984222825 1.2231495385021500 1.1027681953920394 1172.3397378584230 1172.3440066403198 1.1059803754303272 
-32.116423590418997 -148.56690323447086 115.00076033563226 -32.116423590418997 -148.56690323447089 115.00076033563222 -32.353783178349104 -2.6586899511870990e-05 0.00010650272356425505 3.7491516677609602e-05 0.0000000000000000 4.8573750577318719e-09 1.9369450487971562e-09 1.1875549770223870e-05 0.0025042540789961538 -4.8278179973244406e-09 3.2877817812035938e-08 3.8206438617093332e-08 0.0000000000000000 -31.542619574254449 -147.87907313389167 119.86135157363466 98.260374494724786 0.0000000000000000 0.0000000000000000 0.0000000000000000 0.0000000000000000 3.1872915858593998 3.3835926296678172 1.1964213123151739 1.0946992931002433 1125.9555852585772 1125.9561760538093 1.0937649292743472 
-29.181962152522598 -143.60449615505044 106.80809212294389 -29.181962152522598 -143.60449615505050 106.80809212294389 -23.575555733288514 -0.00021078202896240500 2.8910694962817165e-05 0.00012613274403671488 0.0000000000000000 4.5230190703904327e-09 1.7941077512517724e-09 1.2989266512164477e-05 0.012699069767690757 -6.3177796844655563e-08 4.8924024588310105e-08 4.5763454114991514e-09 0.0000000000000000 -28.647655777685479 -142.96738158566356 112.12452093910819 112.69127588814607 0.0000000000000000 0.0000000000000000 0.0000000000000000 0.0000000000000000 3.1937883006243486 3.3965888742480628 1.2029040572875676 1.0975549879322648 1081.9857581510851 1081.9831555419294 1.0967337629505385 
-24.736328662034200 -201.66262519108139 66.147790816529195 -24.736328662034200 -201.66262519108139 66.147790816529195 -1868.2832784409522 -0.00015213183918890349 8.3343171607867271e-05 -0.00011289403136807596 -1783.5302924086352 4.0164770398476435e-09 3.4649880742421146e-09 1.8516654794353826e-05 0.021072715000312277 4.5383916742125270e-11 2.0530159659705969e-09 1.0526166753648731e-09 0.020985344408236770 -24.261860196399997 -200.43215969199997 73.726546483199982 142.71380061529433 0.0000000000000000 0.0000000000000000 0.0000000000000000 0.0000000000000000 3.1699891640318474 3.3464572371981482 1.1765382690348056 1.0844482924141960 4082.6343410527979 4082.6270720407474 1.0846840255633665 
-24.630440987904624 -188.73744860341273 67.824413335299795 -24.630440987904624 -188.73744860341273 67.824413335299809 -1903.7569858243885 0.00010609351152444596 3.5509953508730219e-05 7.3270209034626802e-05 -1954.5474063114339 4.0044121907278907e-09 3.0930276118112943e-09 1.8288733622640052e-05 0.021280428252866690 1.2341430997231691e-09 -5.8287910111537787e-09 -2.7160070458386226e-09 0.018571279449994923 -24.157397762799999 -187.63907770800003 75.309882232799993 165.73632395326644 0.0000000000000000 0.0000000000000000 0.0000000000000000 0.0000000000000000 3.1696559455441147 3.3456779678439466 1.1760887884897859 1.0844482924141978 4315.8673213084267 4315.9039146998966 1.0844688175326047 
-35.504955689333897 -196.58995198986773 74.481614902295405 -35.504955689333890 -196.58995198986764 74.481614902295405 -1801.6211475041998 0.00017177744323862497 -4.1151900189650814e-05 6.0001147870558448e-06 0.0000000000000000 5.2434662167755164e-09 3.3190012960204732e-09 1.7383749227661838e-05 0.021048363601506363 -2.8945143828807543e-09 6.4353435323358927e-09 7.5518765164823172e-09 0.0000000000000000 -34.885542273181727 -195.41132893576267 81.596679120775832 139.46796289390394 0.0000000000000000 0.0000000000000000 0.0000000000000000 0.0000000000000000 3.1673383428187249 3.3409860522526738 1.1737170186881065 1.0819787597937824 4144.7464741366157 4144.7100499634507 1.0833843794283569 
-19.222858512266757 -195.69921982133849 74.287066146152767 -19.222858512266765 -195.69921982133840 74.287066146152739 -1883.8244563923458 -1.1477059497506714e-05 0.00031563001811889848 0.00021570757770411703 0.0000000000000000 3.3882672223484178e-09 3.2933702431847678e-09 1.7410196312184215e-05 0.020557542646558687 2.6138320867074806e-09 9.1942668828208208e-10 1.3187280338148784e-10 0.0000000000000000 -18.822600960987238 -194.52970000168264 81.412954998504986 111.95285379220412 0.0000000000000000 0.0000000000000000 0.0000000000000000 0.0000000000000000 3.1702922198823944 3.3470261048970866 1.1768033015313253 1.0844482924141980 4338.0148722438325 4338.0084594917244 1.0848095821813581 
-23.116649777552734 -103.43448862321952 33.863645834340446 -23.116649777552734 -103.43448862321952 33.863645834340446 -823.71755198831079 -0.00012560430956665508 0.00021231748243602221 -0.00020063888090433860 -871.67463028183477 3.8319301065570244e-09 6.3805005723338581e-10 2.2905382850879619e-05 -0.0025255033897199995 2.2461790170958077e-09 -3.9240948945612020e-09 4.1052347653316874e-09 -0.0016763016681011873 -22.663982073999996 -103.20790935200000 43.238681550399988 69.202643319072678 0.0000000000000000 0.0000000000000000 0.0000000000000000 0.0000000000000000 3.1694523788860489 3.3453193933688832 1.1759360855413421 1.0844482924141969 2422.0526578514578 2422.0118446732990 1.0844059090301046 
-30.706487057552621 -111.07780044749289 37.834666673592217 -30.706487057552632 -111.07780044749286 37.834666673592217 -749.68647052282211 -3.4770638485174163e-05 0.00019944707604443478 -0.00018704566305193201 -685.93267726885176 4.6967260636243680e-09 8.5802209781604688e-10 2.2365559644299534e-05 -0.0035937115174573403 1.0068827873059306e-09 -2.6999183078802182e-09 2.1951391473854658e-09 -0.0044511776444885413 -30.151660686400003 -110.77310694400001 46.988755992800002 74.715282964229786 0.0000000000000000 0.0000000000000000 0.0000000000000000 0.0000000000000000 3.1697134533597899 3.3458529215265078 1.1762086857266882 1.0844482924141967 2197.5433943561688 2197.5854304046561 1.0845317233245189 
-19.134214726252139 -103.79733587040504 41.032242113040887 -19.134214726252139 -103.79733587040504 41.032242113040880 -705.99860103893741 -0.00011273654815291831 0.00012249918605843006 -0.00018508841081819793 -714.06299072837271 3.3781650254915978e-09 6.4848504344183756e-10 2.1930879123388536e-05 -0.0040865293476322999 1.1321740879071665e-09 -1.9747794272915727e-09 2.3336738156646553e-09 -0.0042663244453484813 -18.735150314000002 -103.56704831999998 50.008419303199993 79.719497061372692 0.0000000000000000 0.0000000000000000 0.0000000000000000 0.0000000000000000 3.1694673960813415 3.3453439711764470 1.1759455312129110 1.0844482924141974 2169.8828286726925 2170.0297194191994 1.0844101192317521 
-25.983129548653576 -98.665428924146937 42.063436091055713 -25.983129548653558 -98.665428924146923 42.063436091055706 -732.78672455814990 9.4112453830422612e-07 3.4168520931835966e-05 -0.00037550888043553176 0.0000000000000000 4.1585401233668051e-09 5.0080029012633531e-10 2.1790697926959979e-05 -0.0038670910192293564 -9.4175828431094239e-10 -8.3663294667119779e-10 3.5141191177281353e-09 0.0000000000000000 -25.491879232152165 -98.487589184379729 50.982237960580505 72.292163684038698 0.0000000000000000 0.0000000000000000 0.0000000000000000 0.0000000000000000 3.1696072604647680 3.3456505968837993 1.1761128094525366 1.0844482924141972 2256.7299133190686 2256.6801162729298 1.0844874915574640 
-25.997067498309285 -104.31312417996340 103.27505413745959 -25.997067498309288 -104.31312417996335 103.27505413745953 -137.11565608803531 -6.5418370024450739e-05 0.00053768517107666758 -0.00047853362681631392 0.0000000000000000 -5.6993948833662005e-05 -8.7835249000921622e-06 2.0962346624336410e-07 -0.029084404790146599 -1.5899853466967352e-07 -2.7732176557273641e-07 -1.1150458825548601e-07 0.0000000000000000 -25.283559732051039 -104.23282252886388 108.75695162467670 96.378087069502698 0.0000000000000000 0.0000000000000000 0.0000000000000000 0.0000000000000000 3.2132676466700345 3.4361980212433236 1.2228952996548015 1.1033870517880864 1276.1573183587677 1276.1594039592649 1.1057766360683230 
-26.612735042551179 -118.19123065555715 105.27662386113963 -26.612735042551197 -118.19123065555721 105.27662386113967 7.4478857975502120 0.00015027483767985283 -0.00036334446241748097 -0.00034813050377576973 0.0000000000000000 -4.3355617050358936e-05 6.7159976066453734e-05 5.4231655612572772e-05 -0.028005244589129435 -3.9135085515385823e-08 2.5628242939205571e-08 4.5631746389914470e-07 0.0000000000000000 -25.913646985361510 -118.01095136745833 110.66456878241424 88.846747377876298 0.0000000000000000 0.0000000000000000 0.0000000000000000 0.0000000000000000 3.2508031608390131 3.5170562664587126 1.2662788351645062 1.1132728472907059 1182.0704320481721 1182.0734595981191 1.1255327624118696 
-37.444344786654085 -112.40021628346298 106.82972660112847 -37.444344786654057 -112.40021628346302 106.82972660112851 -407.95343073915996 -0.0016684696155194745 6.7134530767605009e-05 6.0336942690890599e-05 0.0000000000000000 -5.6102927763503771e-05 0.00011324001063041203 6.5028867969197724e-05 -0.11254505499404187 1.3144666437806042e-07 2.7798116950873239e-07 3.7053277050030193e-07 0.0000000000000000 -36.236867317722961 -112.72601430119678 112.03758904139967 95.996160021407249 0.0000000000000000 0.0000000000000000 0.0000000000000000 0.0000000000000000 3.1502305132920334 3.3034753156096728 1.1530493996490001 1.0785010766304377 1585.0319132420989 1585.0332731124438 1.0733568958264923 
-34.435444343049475 -104.92035398988095 100.17961731651152 -34.435444343049454 -104.92035398988095 100.17961731651154 -183.14603802811899 -0.00069722075352258983 0.00040084357700254954 0.0010638022348216267 0.0000000000000000 -5.6397152756201062e-05 5.6140904963633484e-05 3.2313267683846042e-06 -0.22745238695401201 -1.9466150826715534e-07 1.4647670137274976e-07 -1.0637642390139958e-06 0.0000000000000000 -33.380789828628046 -105.09637623893835 105.63342596379557 85.433794965156210 0.0000000000000000 0.0000000000000000 0.0000000000000000 0.0000000000000000 3.2096124172567744 3.4273798617657301 1.2177217612443736 1.0944677657942246 1049.4155891023331 1049.4220556937428 1.1035728234378726 
-113.89394595329580 -161.48331472947632 120.08665757955950 -113.89394595329578 -161.48331472947629 120.08665757955949 -251.81218147875180 -9.4761333886660459e-06 3.9283639815744104e-05 -2.8765169561975737e-05 -228.98016341513627 1.4175203788546751e-08 2.3086688116791265e-09 1.1184169526501364e-05 -0.0080070466903322170 2.1216936776343402e-09 -8.8839739016635995e-09 1.7177136064378735e-08 -0.0057746768830493197 -112.21942232800005 -160.66347960400000 124.66427103520003 147.55923210393107 0.0000000000000000 0.0000000000000000 0.0000000000000000 0.0000000000000000 3.1680044150674846 3.3423525332282815 1.1744166875264115 1.0844482924141952 1369.8216384593049 1369.8217695742935 1.0837088673870259 
-101.03404778579431 -158.88800011026714 111.53120491671554 -101.03404778579439 -158.88800011026709 111.53120491671554 -240.33482135800747 -7.0890174760507369e-05 -5.2699137355897501e-05 -1.9539753034348691e-05 0.0000000000000000 1.2709933661092521e-08 2.2339696759132721e-09 1.2347203426799069e-05 -0.010578935556758134 8.6481699343716477e-09 4.0581745705267816e-08 8.7922213214448738e-09 0.0000000000000000 -99.532617471171264 -158.09468895943013 116.58484116745363 117.70414803503969 0.0000000000000000 0.0000000000000000 0.0000000000000000 0.0000000000000000 3.1755414152257511 3.3574621318289535 1.1819864647594180 1.0868736314378522 1385.8246613942072 1385.8266534948859 1.0871787469998748 
-105.90961768996956 -149.55288660979502 116.09187892084212 -105.90961768996961 -149.55288660979511 116.09187892084216 -232.90595906100523 -5.0415756852333394e-05 1.3565121324554854e-05 0.00025031288197853435 0.0000000000000000 1.3265456622058025e-08 1.9653019212029221e-09 1.1727222377189149e-05 -0.015937958141690276 5.1365926242118379e-09 -8.5895537806673063e-09 -5.4498710996447075e-08 0.0000000000000000 -104.34256255272837 -148.85497981259945 120.89176065121424 119.29379793442074 0.0000000000000000 0.0000000000000000 0.0000000000000000 0.0000000000000000 3.1735087375300468 3.3536523310432926 1.1802139903793536 1.0875744226118000 1391.3119877656598 1391.3117134184440 1.0863739403857340 
-102.04545345748434 -163.11961271994986 119.98451901967898 -102.04545345748433 -163.11961271994997 119.98451901967893 -237.62575907918173 -1.9528883513350212e-05 -2.7725743861329155e-05 1.1371967586838331e-05 0.0000000000000000 1.2825170592201118e-08 2.3557515937966400e-09 1.1198054302496986e-05 -0.0079504858006263987 -4.4840348586831649e-09 2.7475877642780252e-10 4.3708440940835033e-10 0.0000000000000000 -100.53040969477119 -162.28305471776312 124.56781543385799 141.51484144144280 0.0000000000000000 0.0000000000000000 0.0000000000000000 0.0000000000000000 3.1694229293050715 3.3452184464583907 1.1758634971047632 1.0849731649756909 1340.8761780123045 1340.8757321125893 1.0843717018238908 
-79.613640739572830 -149.49475063872461 82.795761285075145 -79.613640739572830 -149.49475063872458 82.795761285075159 -340.96144241660284 -0.00026529498173542349 0.00014707377208826564 -0.00011044028579703062 -326.71157006263013 1.0269257999517835e-08 1.9636481329854401e-09 1.6253518662523447e-05 -0.0098556223183755634 -1.8462433665814324e-08 3.4384104344298901e-08 -1.2188720552274211e-08 0.0058624094079754389 -78.400527573600002 -148.79743798799998 89.448228916799977 108.06316173413846 0.0000000000000000 0.0000000000000000 0.0000000000000000 0.0000000000000000 3.1711545036437636 3.3483449610337881 1.1772466025978814 1.0844482924141969 1580.9697629196257 1580.8876654230442 1.0850164047630402 
-81.386336817345025 -163.37380009941785 81.021841740453098 -81.386336817345025 -163.37380009941791 81.021841740453084 -393.88799443343834 1.9693552148013898e-05 -0.00010048520824037615 -4.5057819423914038e-06 -386.60507470852906 1.0471251088439715e-08 2.3630626344584016e-09 1.6494666468247488e-05 -0.0039090681181429537 5.5175106128966363e-09 9.3481474812594914e-09 9.4938568624586887e-09 0.00092432377615599874 -80.149363288800018 -162.53464431600008 87.773009718400019 109.57810873427631 0.0000000000000000 0.0000000000000000 0.0000000000000000 0.0000000000000000 3.1735472733784014 3.3537331476917491 1.1802602384143235 1.0844482924141983 1606.8493666827637 1607.6510719394548 1.0864054318815781 
-85.589019956184188 -160.99932212397712 88.646246837365027 -85.589019956184117 -160.99932212397712 88.646246837365027 -360.94881719445027 -0.00011709225944835307 -1.2477489771481251e-05 -0.00018701341352013519 0.0000000000000000 1.0950112261376432e-08 2.2947235223114153e-09 1.5458199790430172e-05 -0.0053259611108027434 2.8024232053190002e-09 9.7839237558433542e-09 2.3032554867747699e-08 0.0000000000000000 -84.295478612813938 -160.18443337667750 94.973195224810283 106.11323630727971 0.0000000000000000 0.0000000000000000 0.0000000000000000 0.0000000000000000 3.1636455712692810 3.3340951323742027 1.1705287904127102 1.0813738595275479 1527.3126691935929 1526.9718387112928 1.0818982923509244 
-87.797274981056276 -152.11423273159943 86.169744665109832 -87.797274981056276 -152.11423273159937 86.169744665109860 -438.86109801339853 -0.00030794959901479969 7.0213700862895877e-05 -0.00030028096739001612 0.0000000000000000 1.1201710559127775e-08 2.0390282795546000e-09 1.5794857130657647e-05 -0.010938484369620046 -1.6268066248301245e-08 1.3907798906666397e-08 2.6182530803714845e-08 0.0000000000000000 -86.474010682800568 -151.39014911596544 92.634484883397832 94.367740677547317 0.0000000000000000 0.0000000000000000 0.0000000000000000 0.0000000000000000 3.1574621645042935 3.3206998131724297 1.1632985328834911 1.0803119550888813 1683.6227832937659 1683.6406892710077 1.0785646455859672 
-26.517093969461111 -132.95921549039059 134.89070374131779 -26.517093969461104 -132.95921549039056 134.89070374131779 -65.636810255769888 9.9000528624604086e-05 -0.00020047526227819526 0.0011661863024616025 -39.455597682729426 4.2193803451162637e-09 1.4877519216582868e-09 9.1716976804434580e-06 0.072505659224639127 3.1402343248130380e-08 -6.8196205142445703e-08 5.1708301770925415e-07 0.072635700538475248 -26.018656529999991 -132.43089511199997 138.64462455200004 49.421240865332216 0.0000000000000000 0.0000000000000000 0.0000000000000000 0.0000000000000000 3.1652136382838196 3.3370270888001063 1.1719624621453557 1.0894472116740437 933.58876437197057 933.58875382693259 1.0825978983549105 
-33.082250897117696 -134.50088952338794 133.78765611336203 -33.082250897117689 -134.50088952338788 133.78765611336209 -75.386157530670047 -0.00019953808191370705 -7.7070601385640999e-05 7.7198171169903706e-05 -186.90819853219182 4.9674239166463963e-09 1.5321193203021721e-09 9.3216467220713639e-06 0.040867356034889800 -1.2126023847961288e-07 -8.0903806494772040e-08 1.7980278203044156e-07 0.31170168786213198 -32.495446914399992 -133.95681332000001 137.60295016000006 48.530522504776933 0.0000000000000000 0.0000000000000000 0.0000000000000000 0.0000000000000000 3.1870246167649010 3.3810224852080011 1.1939107449094772 1.0940506225488809 1135.2785143732447 1135.2785886147974 1.0925276169370586 
-28.949379687877819 -137.00848075779263 136.65422556128931 -28.949379687877812 -137.00848075779260 136.65422556128937 -110.49668741246236 0.00013512070940307279 0.00026759819928692151 4.8284947846724645e-05 -145.74513052882622 4.4965167700361519e-09 1.6042940309546336e-09 8.9319633715945201e-06 0.016779506372198109 9.0868654423990237e-08 6.1611774665771156e-09 2.5332974711177354e-10 -0.040377197298309360 -28.418203856399998 -136.43877710800004 140.31002455199999 44.353383947079159 0.0000000000000000 0.0000000000000000 0.0000000000000000 0.0000000000000000 3.1667722290981146 3.3395682229597243 1.1728582330851598 1.0852858524967690 1107.9347964937058 1107.9346338522623 1.0829844436541143 
-27.277031637502336 -129.99981256564033 140.40100505211177 -27.277031637502329 -129.99981256564027 140.40100505211180 -224.31907447245413 1.2039978569675749e-05 0.00020686113989424110 5.8567669733474872e-05 0.0000000000000000 4.3059691368085851e-09 1.4025691719155022e-09 8.4226236758411233e-06 0.0081827333556464977 -7.0884449637379801e-08 2.4185466294318665e-08 -2.2232991855395537e-08 0.0000000000000000 -26.768365491316434 -129.50173712462359 143.84833436668455 49.139845408488213 0.0000000000000000 0.0000000000000000 0.0000000000000000 0.0000000000000000 3.1856882169596132 3.3796999752019725 1.1940812342369993 1.0898398825179596 1580.7581428094011 1580.7577602453812 1.0926955432626608 
-40.758892961717294 -65.313051244907328 151.10141955573278 -40.758892961717279 -65.313051244907328 151.10141955573275 -515.15144001257386 0.00055783596474456875 2.7231550014248787e-05 -0.00093960981166233597 -191.76266510889718 5.8421093518390421e-09 -4.5905967915871315e-10 6.9680022285467666e-06 0.084950812491901964 4.3836721098621948e-07 4.6355017435436314e-08 -6.1912200692204028e-07 0.38541000020057309 -40.068761925200000 -65.476070995999990 153.95338104800004 156.95717166164070 0.0000000000000000 0.0000000000000000 0.0000000000000000 0.0000000000000000 3.2072989918589148 3.4239817885097281 1.2167689277926106 1.0886887668428034 1735.8452020165457 1735.8452017187565 1.1032885546959486 
-53.285496125854010 -59.432659230672371 146.13555373331138 -53.285496125854017 -59.432659230672364 146.13555373331135 -641.38678485571234 0.00072734180261755917 0.00051351534577925612 -0.0019656609366132567 -324.58552489386324 7.2694028574460390e-09 -6.2830174396566463e-10 7.6430653148662486e-06 -0.19895867357195135 -1.2042175882851535e-06 -2.2293010660566851e-07 1.3334545163873704e-06 -0.43991637415103929 -52.426757905599978 -59.655776269200025 149.26381449600007 118.05125250056595 0.0000000000000000 0.0000000000000000 0.0000000000000000 0.0000000000000000 3.1858818243636269 3.3795842677640100 1.1937758994702727 1.0871912311219136 2080.7965111629605 2080.7965081984257 1.0925356303989058 
-35.796251499345871 -65.872467621533900 141.62009138371073 -35.796251499345878 -65.872467621533914 141.62009138371076 -1105.2749556761673 -0.00024052164807657073 0.00033943336038051448 -0.00095959785678656148 -1172.4079626319685 5.2766573332974068e-09 -4.4296499801532723e-10 8.2569002550769710e-06 0.094791017118854279 1.2829197235623638e-07 -1.9836847460006217e-07 2.6243962972538620e-07 0.071442702788779483 -35.172917262399999 -66.029770167599992 144.99959110400002 155.12084301790807 0.0000000000000000 0.0000000000000000 0.0000000000000000 0.0000000000000000 3.1498365673555306 3.3054235015650870 1.1556343860107499 1.0782312487113379 3276.3582722851197 3276.3582721113567 1.0748476029901199 
-51.244089274632145 -66.438611603149269 138.65922941482236 -51.244089274632167 -66.438611603149255 138.65922941482233 -1144.8542437365857 0.00040923520213719303 0.0015394476636048299 -0.0027370076125412552 0.0000000000000000 7.0368014748467544e-09 -4.2666814525915702e-10 8.6594017929542116e-06 -0.10119514582471560 -9.4150075872312950e-07 -2.1182845009464587e-06 5.7110058843092382e-07 0.0000000000000000 -50.412828244765279 -66.590128188430739 142.20347059834828 136.07757377940416 0.0000000000000000 0.0000000000000000 0.0000000000000000 0.0000000000000000 3.1037064050426850 3.2045798104590282 1.1008246520033333 1.0631373361168637 2868.7572118124522 2868.7572120062541 1.0492285794536722 
-95.993301063837208 -159.51648538828957 70.277909540291517 -95.993301063837194 -159.51648538828957 70.277909540291503 -683.15674471780608 -0.00021095642087298836 1.4870555311874182e-05 -0.00023357785469281446 -734.08392173561867 1.2135576432648067e-08 2.2520481035570583e-09 1.7955203723829527e-05 -0.0025287496353440216 -1.4409388911027753e-09 -3.6099455541576122e-09 -4.1729272030864933e-09 -0.0019816245177783835 -94.559718839999974 -158.71675115199997 77.626866652000004 109.98746742214213 0.0000000000000000 0.0000000000000000 0.0000000000000000 0.0000000000000000 3.1691758245904111 3.3447287092137370 1.1756213877293755 1.0844482924141969 2223.1705965892074 2223.1640454433841 1.0842617465830882 
-91.049174104149316 -159.26355449225096 75.372879268109386 -91.049174104149344 -159.26355449225096 75.372879268109372 -490.18032836044472 -0.00040687751502817737 0.00054274790721082859 -0.00015826281023105781 -377.67805389464132 1.1572236613410780e-08 2.2447621539356533e-09 1.7262590166211570e-05 -0.0032084049951109730 -7.9663921746852395e-10 -1.3965995854584475e-08 -1.8426539468103881e-09 0.0033477569265329345 -89.682139475999989 -158.46640519600001 82.438353807199988 112.88451412247700 0.0000000000000000 0.0000000000000000 0.0000000000000000 0.0000000000000000 3.1693525031242937 3.3450074217888850 1.1757224097240313 1.0844482924141980 1716.3411219807024 1716.3605841742758 1.0843046734211990 
-104.25464593131187 -155.70481784541084 79.789236245451420 -104.25464593131180 -155.70481784541073 79.789236245451363 -674.46324939436806 -1.4398294273469316e-05 0.00016526487752374007 -0.00011331466518052167 0.0000000000000000 1.3076891236529775e-08 2.1423673945974997e-09 1.6662227674046907e-05 -0.0059412323338533740 -5.5536455527972130e-09 -1.1535960572695941e-09 2.5544016518673960e-08 0.0000000000000000 -102.70986659571734 -154.94403864466588 86.608986019839278 111.02505284862640 0.0000000000000000 0.0000000000000000 0.0000000000000000 0.0000000000000000 3.1692493888478359 3.3448407789547949 1.1756575652377428 1.0827807367291686 2208.8891447930068 2208.8803182339338 1.0842741646439853 
-101.92042557313630 -168.06097170186592 76.677171004967377 -101.92042557313637 -168.06097170186601 76.677171004967434 -498.02792251676487 -0.00030540728742896387 0.00026059569707458536 -0.00042135957523291632 0.0000000000000000 1.2810923100126102e-08 2.4979538437719384e-09 1.7085283875672985e-05 -0.0035055670492594396 3.5297925698409999e-09 -4.0999864527267662e-10 -1.7523287387749321e-09 0.0000000000000000 -100.40706467681501 -167.17391327890167 83.670075146830683 105.53983917324770 0.0000000000000000 0.0000000000000000 0.0000000000000000 0.0000000000000000 3.1706623854865081 3.3479470238878593 1.1773578560381346 1.0840647015375768 1720.8852887071623 1720.9076312747106 1.0850598755980203 
-116.33139374241541 -99.997302847018560 90.339529195756342 -116.33139374241544 -99.997302847018560 90.339529195756327 -402.70367791933506 -6.4388888319239547e-06 -5.4567631692874483e-05 9.0572699990775914e-05 -369.88544678188225 1.4452930963138043e-08 5.3913296049756809e-10 1.5228013857893075e-05 -0.014596082053987540 -1.8691234807152754e-08 -2.9575696261390607e-08 -7.6517344436014087e-08 -0.0070800999250728450 -114.62406224400000 -99.805851428000011 96.572263865600007 85.211636250682801 0.0000000000000000 0.0000000000000000 0.0000000000000000 0.0000000000000000 3.1699715228536052 3.3463016191448891 1.1763979950498364 1.0855093798871018 1613.4101148441928 1613.4102509450190 1.0846159685223993 
-112.74664312721568 -91.199177023913876 94.203525422797696 -112.74664312721568 -91.199177023913862 94.203525422797696 -416.08091040904543 4.4198039899004266e-05 2.9742832026893391e-05 0.00022157493563543899 -452.66669568704680 1.4044475471486349e-08 2.8592328504828407e-10 1.4702739649763432e-05 -0.040640546456457143 5.4205828577547225e-08 1.3285078601527496e-07 1.6119740434353793e-09 -0.044405905412657612 -111.08756211600000 -91.097641973600034 100.22126851279998 99.535403830130534 0.0000000000000000 0.0000000000000000 0.0000000000000000 0.0000000000000000 3.1669157168002076 3.3395873820342312 1.1727298209334873 1.0851047209612410 1680.1779983039448 1680.1780340015746 1.0829321581565010 
-114.58821650938472 -97.825056062704832 102.85016460925264 -114.58821650938468 -97.825056062704803 102.85016460925266 -390.87477020895523 5.1968641821467929e-05 0.00022349759249879831 -0.00014225402300808656 -486.78082342373278 1.4254314284478653e-08 4.7661774527085764e-10 1.3527309789651554e-05 -0.021375122784312642 -1.5170137252620079e-08 -4.7349543925231698e-08 3.7790483325192024e-08 0.0018091989760165917 -112.90434805199999 -97.655804887999992 108.38681131359999 128.09762094244454 0.0000000000000000 0.0000000000000000 0.0000000000000000 0.0000000000000000 3.1656562687754759 3.3372124059233688 1.1716210667466407 1.0862623477985831 1740.0913842705522 1740.0914223731802 1.0824625075318990 
-108.76008857136100 -104.07431961650069 94.551799800833706 -108.76008857136095 -104.07431961650069 94.551799800833706 -428.69129830679583 -4.8419989714573756e-05 -0.00014576262063140282 0.00017679159478396601 0.0000000000000000 1.3590238379102006e-08 6.5645644475864628e-10 1.4655394998897011e-05 -0.023407395562671646 4.9344982100044269e-08 -1.9497560286781112e-09 3.2613566065797060e-08 0.0000000000000000 -107.15466629968294 -103.84120130723400 100.55016500991876 102.24201981555134 0.0000000000000000 0.0000000000000000 0.0000000000000000 0.0000000000000000 3.1708835830638393 3.3487712279104147 1.1779643765691856 1.0863380218086831 1668.8804474502826 1668.8803491447593 1.0853292750136447 
-27.586405943385120 -115.54165351789587 97.553065000528832 -27.586405943385110 -115.54165351789594 97.553065000528889 -16.310911060230570 0.00025047482404196177 -0.00014523147284766037 -0.00013780185194781387 0.0000000000000000 -4.5210712855629359e-05 8.2982114024293289e-05 2.7633879224111954e-05 -0.021850231471136784 -2.3908993440682245e-08 3.9174049512319118e-07 -3.0134948010748303e-07 0.0000000000000000 -26.889884864405381 -115.37486796036181 103.37575244326078 96.382960025775517 0.0000000000000000 0.0000000000000000 0.0000000000000000 0.0000000000000000 3.2376308048547311 3.4886185472679339 1.2509918461065113 1.1111464856763138 1209.3429417878606 1209.3277196609083 1.1184707569712384 
-111.20668748629745 -103.85262597628825 149.24203268962759 -111.20668748629743 -103.85262597628822 149.24203268962762 -125.53270621304114 -3.0207568591496901e-05 -7.3866660574847196e-05 -5.2966303346034924e-05 -128.18584987882099 1.3869017378986825e-08 6.5007821348217476e-10 7.2207685111180808e-06 0.012317907137918980 6.1127430450175651e-09 -1.3013851208022531e-08 6.0313166736122465e-08 0.028371020574690653 -109.56833416800004 -103.62177336400003 152.19744990400002 70.302883591683823 0.0000000000000000 0.0000000000000000 0.0000000000000000 0.0000000000000000 3.1603168956423890 3.3261450718277406 1.1658847157119214 1.0849159206412533 1112.9061330892434 1112.9066258153684 1.0797764126235347 