# For a description of the Tecplot format see the Tecplot User's guide.
#
Variables=x,y,z,s_u,s_v,s_w,s_p,mono_f_vel_u,mono_f_vel_v,mono_f_vel_w,const,u_nu,v_nu,w_nu,p_nu,x_nu,y_nu,z_nu,const,u_ref,v_ref,w_ref,vol_ref,x_ref,y_ref,z_ref,const,I1,I2,I3,J,p1,p2,p3
Zone f=fepoint, n=356, e=1130, et=brick, c=black
-66.7953 -97.6854 85.8935 -66.795303731367980 -97.685418635497641 85.893450062095312 -153.37813596093113 -1.1331287508888427e-05 6.3416029352871303e-06 1.4468701122644923e-05 1.0963729670694298e-20 1.6961524101910544e-08 9.1071428176547897e-10 3.0163684806794325e-05 0.0010460074870849412 6.8798588745446363e-11 -4.1928846850467560e-11 -8.4317687997487490e-12 -1.7887513471341146e-21 -65.754724465942431 -97.517594547729473 92.373562431030237 2074.8615187338191 0.0000000000000000 0.0000000000000000 0.0000000000000000 0.0000000000000000 3.1694598280747122 3.3453381327458662 1.1759474569345125 1.0844482845501633 1205.3397761710523 1209.8130710193952 1.0844111125802838 
-76.924015546891752 -131.06920430659216 71.609616355349516 -76.924015546891738 -131.06920430659216 71.609616355349530 -153.07109018617146 -2.2657278894446694e-05 -2.0022797078905633e-06 9.7337302822826824e-07 -144.23627217925781 1.9183738403372178e-08 2.7621708253988686e-09 3.3863085270979809e-05 0.0010458183614119724 1.2824762613793837e-10 6.7553020821668593e-12 -1.9941386715142608e-12 0.0010165749547920229 -75.747104543999981 -130.56019973999997 78.884476808000016 2128.8259272129790 0.0000000000000000 0.0000000000000000 0.0000000000000000 0.0000000000000000 3.1695098686593983 3.3454447773779203 1.1760042052033557 1.0844482845501635 1210.5574638986541 1207.6413238758319 1.0844372761042782 
-64.431031067061951 -122.21311396768233 63.515410313405233 -64.431031067061951 -122.21311396768235 63.515410313405241 -144.30847376944700 6.7457388428748120e-06 6.8390840906250165e-07 1.7761566952862543e-06 -129.51716497840479 1.6442807920791228e-08 2.2710190394903407e-09 3.5959420904063677e-05 0.0010365657109487904 -3.8938138057772227e-11 -5.5453018741602740e-11 2.4224655725413613e-11 0.00089147893822113633 -63.422274742800013 -121.79461816400000 71.240629883439979 1237.7701333319521 0.0000000000000000 0.0000000000000000 0.0000000000000000 0.0000000000000000 3.1696056159408985 3.3456325773668243 1.1760961089846005 1.0844482845501633 1177.7803477190971 1177.2408884735253 1.0844796294634824 
-57.061886286347473 -132.60423973339383 69.234399374122845 -57.061886286347473 -132.60423973339383 69.234399374122845 -131.61503809315897 1.5531958304835690e-05 4.2157274098000039e-06 -1.0702862004450626e-05 -138.60635049845635 1.4826037203485853e-08 2.8472947333213483e-09 3.4478247773250814e-05 0.00096890043984526717 -5.4388136364171540e-11 8.1305793969395145e-12 8.0880397991593318e-11 0.0011594545198360480 -56.152318124399997 -132.07954718800002 76.641416164000006 2090.5778096190215 0.0000000000000000 0.0000000000000000 0.0000000000000000 0.0000000000000000 3.1693859684506038 3.3451951950754624 1.1758785475220781 1.0844482845501628 1169.7541081380209 1164.2704008204564 1.0843793963404345 
-124.71808142734982 -110.68811426382422 82.540771006756415 -124.71808142734980 -110.68811426382422 82.540771006756401 -187.01357401515008 -1.2840900431971151e-06 3.3213068911997968e-06 -1.8358496406072385e-05 -193.09849348339660 2.9669664752818292e-08 1.6318369988610471e-09 3.1032002278053028e-05 0.0011434732925818263 -7.8232165700360487e-12 -2.8378599174923395e-11 3.3632469314998709e-11 0.0011529657769411095 -122.89786571200003 -110.38740333199999 89.207425400000020 2092.2379289329847 0.0000000000000000 0.0000000000000000 0.0000000000000000 0.0000000000000000 3.1695654943600227 3.3455542475456452 1.1760579708694869 1.0844482845501640 1277.4635652261056 1276.8465112424346 1.0844620679302388 
-124.58828423440518 -128.99188959087093 87.067131888388701 -124.58828423440515 -128.99188959087090 87.067131888388730 -177.74326545945522 -1.7692499992923506e-06 2.2051672790171872e-06 -1.7385914733254688e-05 -188.26757415738118 2.9641187754281262e-08 2.6469685332486388e-09 2.9859710453550292e-05 0.0011084455701517225 -3.1910962470106988e-12 -2.7940328266053575e-11 1.6290623736160925e-11 0.0010474586894937171 -122.76981557999994 -128.50411506799998 93.481940963999989 2295.0048277193882 0.0000000000000000 0.0000000000000000 0.0000000000000000 0.0000000000000000 3.1695834747121761 3.3455860270902069 1.1760716839447656 1.0844482845501635 1256.7764119857854 1256.8283187376653 1.0844683666635428 
-88.668942057186186 -119.94852236984168 102.45297257361901 -88.668942057186129 -119.94852236984164 102.45297257361895 -154.52468143119523 -6.3572104305903208e-06 9.7732276858259505e-06 -1.7219338656746644e-05 -5.4140941573682841e-20 2.1760563823081114e-08 2.1454208409821263e-09 2.5874898859967747e-05 0.0010292554101837717 4.7838973984614695e-11 -6.1723603342831442e-11 3.5314726285146599e-11 7.4812592206513382e-21 -87.333945182495114 -119.55317056945796 108.01171823852533 1853.2119812635015 0.0000000000000000 0.0000000000000000 0.0000000000000000 0.0000000000000000 3.1694479724921369 3.3453280152755545 1.1759494744506827 1.0844482845501635 1216.0307946667208 1228.5703705383205 1.0844120687967489 
-123.70337113936195 -119.33840781068169 101.42152220650959 -123.70337113936195 -119.33840781068169 101.42152220650961 -162.94204042441382 -8.0312012824231330e-07 5.7725557666280354e-06 -8.7895951316096002e-06 -160.66423892528334 2.9447043276009666e-08 2.1115852399944401e-09 2.6142036386289643e-05 0.0010550377556521641 -7.1507494633210742e-13 -4.0600598584565518e-11 2.7074864056876525e-11 0.0010602515890435994 -121.89681335200000 -118.94929134799999 107.03765745040002 1571.7251237143605 0.0000000000000000 0.0000000000000000 0.0000000000000000 0.0000000000000000 3.1695207903365810 3.3454518276627776 1.1760000073530172 1.0844482845501628 1227.1127747497919 1212.1586885452869 1.0844353399195652 
-44.921665405549710 -164.47472983852984 119.01248970330130 -44.921665405549703 -164.47472983852990 119.01248970330130 -102.15586153521289 2.2383736285716264e-05 -2.5384572800159273e-05 9.7529807115155225e-06 0.0000000000000000 1.2162498258527776e-08 4.6148357357722603e-09 2.1586114314686707e-05 0.00081739719703770265 -1.6259225408488941e-10 1.7928490529653635e-10 -7.2447847651198616e-12 0.0000000000000000 -44.175503749389662 -163.62432261291502 123.64986896362305 1288.7765825848380 0.0000000000000000 0.0000000000000000 0.0000000000000000 0.0000000000000000 3.1692213017672568 3.3448324188963743 1.1756796409980981 1.0845968040055973 1107.8707272117001 1121.2027698695924 1.0842877768821306 
-15.832856201913559 -144.51114896794081 132.15696326583139 -15.832856201913559 -144.51114896794076 132.15696326583137 -103.07596983729583 5.3691718639038319e-06 -1.5721955066818478e-05 7.4738764230171002e-06 -103.77093519300962 5.7804718234244490e-09 3.5076744842044150e-09 1.8181799148919708e-05 0.00081968455477201467 -2.3827241932271060e-11 1.1410583658787373e-10 -2.6305674487185698e-11 0.00080551440620002534 -15.478227839600008 -143.86476845600004 136.06298808800005 1207.7015194609139 0.0000000000000000 0.0000000000000000 0.0000000000000000 0.0000000000000000 3.1686407162194481 3.3436448857752050 1.1750724846455436 1.0843890559635001 1120.4615414055409 1120.6895228683204 1.0840076852520382 
-44.921665405549710 -164.47472983852984 135.57200683298356 -44.921665405549696 -164.47472983852995 135.57200683298367 -124.78615032158508 2.0845719737949580e-06 -1.1861763457416602e-05 1.0177791926684869e-05 0.0000000000000000 1.2162498258527776e-08 4.6148357357722603e-09 1.7297329758747537e-05 0.00090795125540842710 -1.5005746272215923e-11 9.9256163595552053e-11 -4.3170976918674639e-11 0.0000000000000000 -44.175503749389669 -163.62432261291511 139.28801968872074 2260.0113226803110 0.0000000000000000 0.0000000000000000 0.0000000000000000 0.0000000000000000 3.1693573050495840 3.3451257382964488 1.1758374489808361 1.0844271698569581 1164.0756872308020 1158.7991776358076 1.0843604025041673 
-6.1055731645644995 -162.28677575354070 126.18721621771510 -6.1055731645645004 -162.28677575354067 126.18721621771510 -138.91767975968099 1.4866946028892149e-05 -1.2997489617521336e-05 6.6472012515158618e-06 -146.46685636838870 3.6463252139906648e-09 4.4934974630095326e-09 1.9727916633627274e-05 0.00094674621712952220 -8.5336172399689575e-11 9.9792700829879813e-11 -2.5868540207808444e-11 0.00093040152768328853 -5.8818733370400009 -161.45872929999999 130.42539591680000 1840.5999298976626 0.0000000000000000 0.0000000000000000 0.0000000000000000 0.0000000000000000 3.1696576235026064 3.3457451253366361 1.1761568403813032 1.0844482845501637 1190.3068307076358 1189.5409445007122 1.0845076450695639 
-10.057561316529437 -107.37582912132605 181.84785830865874 -10.057561316529435 -107.37582912132606 181.84785830865874 -154.78881461646637 -3.5514357200737571e-06 2.3649967602790066e-06 6.8570232890591109e-06 -156.55554770853863 4.5133830284260767e-09 1.4481403853849883e-09 5.3122485841328171e-06 0.00097719347662901372 1.6226648357525319e-12 -2.3606692834228569e-11 -7.4594545282538590e-12 0.00099684130216586985 -9.7806680107999995 -107.10896956400003 182.98909712000000 1021.2952016557671 0.0000000000000000 0.0000000000000000 0.0000000000000000 0.0000000000000000 3.1695366004603400 3.3454944175449417 1.1760270010940033 1.0844482845501637 1215.5294015392180 1215.2002433564378 1.0844477842297151 
-17.948876570511491 -108.91987408510695 192.86570769210695 -17.948876570511491 -108.91987408510695 192.86570769210695 -161.60210341714497 -5.6637462339106747e-06 2.7240892656470559e-06 3.4356512784275721e-06 -165.12630185559010 6.2447203519333527e-09 1.5337838776829926e-09 2.4587123395036770e-06 0.00098049497260450274 3.3798899260494903e-12 -2.8004930231767118e-11 -4.0366203944444487e-12 0.0010094156731813278 -17.565766725200003 -108.63723447200002 193.39391677600000 1230.2822850381203 0.0000000000000000 0.0000000000000000 0.0000000000000000 0.0000000000000000 3.1695300397085915 3.3454807183043265 1.1760198515889593 1.0844482845501635 1230.9550739077717 1230.5391911919776 1.0844444864177620 
-44.921665405549710 -119.94852236984168 168.69104109234814 -44.921665405549781 -119.94852236984177 168.69104109234826 -156.88264546761889 6.1740134914861016e-07 7.5730235737409540e-06 1.0411099144024263e-05 0.0000000000000000 1.2162498258527776e-08 2.1454208409821263e-09 8.7197606664091154e-06 0.00098160640716182801 2.0514487967141634e-12 -4.8392043720987369e-11 4.9775893313878777e-12 0.0000000000000000 -44.175503749389591 -119.55317056945772 170.56432113891603 1872.3464537223574 0.0000000000000000 0.0000000000000000 0.0000000000000000 0.0000000000000000 3.1695763238147676 3.3455753690899721 1.1760682497461796 1.0844482845501631 1219.3283992444344 1220.9181190685970 1.0844668210121799 
-9.6026095762053298 -124.84247620715327 188.06956324441134 -9.6026095762053298 -124.84247620715327 188.06956324441131 -156.25213292158273 -2.7761272775708470e-06 -2.8258408424090782e-06 5.2212516429205698e-06 -156.12121910981463 4.4135683996415764e-09 2.4168375079014481e-09 3.7008760056522756e-06 0.00097374562207783600 -9.9541591467229919e-12 1.5363501799944515e-11 -9.1768468828707566e-12 0.00098208587279822426 -9.3318398883999993 -124.39710846400000 188.86462832000004 1016.3527334425750 0.0000000000000000 0.0000000000000000 0.0000000000000000 0.0000000000000000 3.1695271242498300 3.3454747617460709 1.1760168082090281 1.0844482845501662 1218.9418448102608 1218.5676597107777 1.0844430821538902 
-44.921665405549710 -164.47472983852984 102.45297257361901 -44.921665405549703 -164.47472983852992 102.45297257361896 -121.44310378922931 7.1214192991080898e-06 -3.4422201770111032e-05 -2.9236734131690415e-05 2.9462651894384235e-19 1.2162498258527776e-08 4.6148357357722603e-09 2.5874898859967747e-05 0.00088595874449675239 -4.5915602704337302e-11 2.2748736168280392e-10 4.9835104833791424e-11 -4.0493293935007274e-20 -44.175503749389662 -163.62432261291499 108.01171823852535 1450.3671205666894 0.0000000000000000 0.0000000000000000 0.0000000000000000 0.0000000000000000 3.1703607668614491 3.3472453533544284 1.1769555358465729 1.0847435785546984 1157.9637718735469 1170.0484901658999 1.0848757646829068 
-62.131459018362342 -161.77768949559731 79.147317696322176 -62.131459018362335 -161.77768949559731 79.147317696322190 -157.79840774970842 -1.1541946931092646e-05 -2.9401578943867058e-05 -7.3298222803422725e-06 -162.04458522595820 1.5938289049666213e-08 4.4652460617911061e-09 3.1910879966901007e-05 0.0010025195228529078 6.6207091865441972e-11 1.7299779450183743e-10 7.4076289327355940e-11 0.0010887331477762755 -61.153654769600031 -160.95484587600001 86.002782780800032 1645.6757988676138 0.0000000000000000 0.0000000000000000 0.0000000000000000 0.0000000000000000 3.1689227169034164 3.3442718492717209 1.1754186949441736 1.0843126085654671 1226.4493464423249 1226.4207403886564 1.0841672874367687 
-44.979640504449655 -168.89721529106436 76.260291416213946 -44.979640504449655 -168.89721529106436 76.260291416213946 -171.73024911911489 8.7605773091045141e-07 -3.0236578204685028e-05 -4.8436538806756421e-06 -152.82948498439185 1.2175214419984925e-08 4.8601073165954736e-09 3.2658597046264504e-05 0.0010432723844996997 9.9080368194354498e-13 1.8498098496868561e-10 5.2308210395802090e-11 0.0010546404332404931 -44.232698507600013 -168.00161050399998 83.276389748800028 1737.4139093181343 0.0000000000000000 0.0000000000000000 0.0000000000000000 0.0000000000000000 3.1695133702703648 3.3454337288987741 1.1759892705489139 1.0844482845501628 1244.8036133972996 1243.2685100973354 1.0844303976254077 
-44.921665405549710 -186.73783357287391 102.45297257361901 -44.921665405549689 -186.73783357287380 102.45297257361892 -177.06781801673614 -1.0300373893126016e-06 -1.5252749656444587e-05 -1.3507230216614760e-05 -2.1645945719763732e-20 1.2162498258527776e-08 5.8495287502680071e-09 2.5874898859967750e-05 0.0010603968141643550 1.5016206708894519e-11 1.0778020903785091e-10 5.7919920389560457e-12 2.9976196254483748e-21 -44.175503749389676 -185.65989863464350 108.01171823852533 1616.4576808433910 0.0000000000000000 0.0000000000000000 0.0000000000000000 0.0000000000000000 3.1693558116847411 3.3451202212095588 1.1758332975079075 1.0844117835297145 1256.9104351666324 1255.9133537882010 1.0843584594326570 
-88.668942057186186 -142.21162610418577 135.57200683298356 -88.668942057186129 -142.21162610418571 135.57200683298367 -148.09621694068133 -5.3873086190183248e-06 -2.7165168866852431e-06 4.7314042376588664e-06 0.0000000000000000 2.1760563823081111e-08 3.3801424992319089e-09 1.7297329758747537e-05 0.00099032028083213407 3.8147972464955538e-11 1.9492124397016305e-11 -8.6071705773693400e-12 0.0000000000000000 -87.333945182495100 -141.58874659118649 139.28801968872074 1877.7986991733408 0.0000000000000000 0.0000000000000000 0.0000000000000000 0.0000000000000000 3.1691340083228718 3.3446514478865237 1.1755860791156387 1.0842480582577172 1204.0781982246874 1201.5309415544591 1.0842443197142546 
-66.795303731367952 -164.47472983852984 135.57200683298356 -66.795303731367923 -164.47472983852998 135.57200683298370 -137.19874426866213 -1.1789923012079059e-05 -4.3640199515970177e-06 8.1394741404160409e-06 -4.0116861607418409e-21 1.6961524101910541e-08 4.6148357357722603e-09 1.7297329758747537e-05 0.00095216229467180778 8.4767198617509811e-11 3.9079586878823872e-11 -2.2202231297139762e-11 4.8766779049342364e-22 -65.754724465942374 -163.62432261291517 139.28801968872077 2018.1238718776010 0.0000000000000000 0.0000000000000000 0.0000000000000000 0.0000000000000000 3.1690821642681763 3.3445515748446604 1.1755380679517651 1.0843630096214016 1184.0064115448474 1184.7307301352771 1.0842223585793835 
-88.668942057186186 -164.47472983852984 119.01248970330130 -88.668942057186129 -164.47472983852995 119.01248970330123 -154.21047804341242 -8.4042674651474178e-06 -6.0460215849654352e-06 -4.8369336517179125e-06 0.0000000000000000 2.1760563823081117e-08 4.6148357357722594e-09 2.1586114314686714e-05 0.0010083098591169353 5.6283993600967145e-11 3.9432251658024407e-11 7.3452069912145711e-12 0.0000000000000000 -87.333945182495114 -163.62432261291505 123.64986896362312 1549.0027140339625 0.0000000000000000 0.0000000000000000 0.0000000000000000 0.0000000000000000 3.1697300619954043 3.3458912227563742 1.1762304523090874 1.0844696545002632 1217.1009489606031 1214.5622798510378 1.0845415467153439 
-88.668942057186186 -142.21162610418577 119.01248970330130 -88.668942057186129 -142.21162610418571 119.01248970330120 -134.94613572931615 -2.2223642498122587e-05 -9.1221829295763906e-06 1.2698666558506722e-06 0.0000000000000000 2.1760563823081114e-08 3.3801424992319085e-09 2.1586114314686711e-05 0.00094843485056936413 1.5080477923949382e-10 5.7727191076058409e-11 6.8086759097554096e-12 0.0000000000000000 -87.333945182495086 -141.58874659118649 123.64986896362313 1389.1126189879024 0.0000000000000000 0.0000000000000000 0.0000000000000000 0.0000000000000000 3.1690812052905990 3.3444849648473500 1.1754711400829505 1.0844032687362830 1177.0004287827330 1189.0581334317396 1.0841917361237980 
-45.957741088842440 -110.63386736748599 39.802525418324095 -45.957741088842447 -110.63386736748596 39.802525418324088 -212.71019308738821 5.5542399171958196e-06 9.9979895825439107e-06 -1.3007652856445124e-05 -212.93618805725177 1.2389809539437024e-08 1.6288413950960032e-09 4.2100871381123284e-05 0.0012566130287786882 1.6388619758461535e-11 -2.3629040033701941e-11 6.3302399801402665e-11 0.0012165915918720600 -45.197633928000002 -110.33371083599998 48.847122559999995 1069.0094105005942 0.0000000000000000 0.0000000000000000 0.0000000000000000 0.0000000000000000 3.1695415317668325 3.3455043403202822 1.1760319910534653 1.0844482845501637 1316.7977814584867 1316.8114449853294 1.0844500856577128 
-58.046453435844604 -99.012645808689484 37.027010149127875 -58.046453435844583 -99.012645808689456 37.027010149127854 -233.07371035182288 -6.6833587130445979e-06 1.0791501585676455e-05 -1.7513227469692001e-05 -234.32878899227188 1.5042044304580671e-08 9.8432828554706475e-10 4.2819707982033606e-05 0.0013306196057864554 7.2202019977859448e-11 -1.7038152023536371e-11 5.9575915787805604e-11 0.0014119513342371712 -57.123633070400032 -98.831257531200038 46.226036100800002 1475.5774262919704 0.0000000000000000 0.0000000000000000 0.0000000000000000 0.0000000000000000 3.1695382417971980 3.3454974893859055 1.1760284258262497 1.0844482845501635 1354.7367275112776 1354.7053470777473 1.0844484429747470 
-61.103610608188411 -105.83813825204626 48.712028048583470 -61.103610608188426 -105.83813825204628 48.712028048583456 -201.69218332552148 6.3119676811764474e-07 3.2581777024329982e-05 -3.1495808655558411e-05 -150.25340217590889 1.5712778439480601e-08 1.3628679296218138e-09 3.9793380354424805e-05 0.0012236409769864594 6.8819074301500234e-11 -9.0671260697595815e-11 1.8848604570405858e-10 0.0015177083125299297 -60.139641125599979 -105.58699381199996 57.260903223199996 1724.6135661994952 0.0000000000000000 0.0000000000000000 0.0000000000000000 0.0000000000000000 3.1695302016127154 3.3454810176330749 1.1760199901351940 1.0844482845501637 1292.6913206989630 1292.8515854386810 1.0844445563021696 
-19.814238339870105 -88.186805141867524 49.176017690141364 -19.814238339870109 -88.186805141867552 49.176017690141364 -204.88748744020648 -4.9608524114728355e-06 3.7473067846771403e-06 -2.5321288112221858e-05 -207.29914554076478 6.6539765641859824e-09 3.8392489187799588e-10 3.9673210693536021e-05 0.0012308218116902946 1.1313847174524303e-11 -7.0220521761402992e-11 1.1223877985164221e-11 0.0012336904860980912 -19.406020858399991 -88.116056368799974 57.699076624800000 1439.6451283969650 0.0000000000000000 0.0000000000000000 0.0000000000000000 0.0000000000000000 3.1695342276433243 3.3454891871690031 1.1760241339172433 1.0844482845501635 1305.8324117700738 1305.9484649851670 1.0844464661232074 
-59.721908773803037 -179.59324275559999 71.472703576326793 -59.721908773803051 -179.59324275559996 71.472703576326793 -202.55591902298985 -4.1326255694147979e-06 -5.6815684890578730e-06 -7.9117775385986743e-06 -208.45759254424908 1.5409639370078668e-08 5.4533187965333241e-09 3.3898544598898184e-05 0.0011394526585550694 2.8854918859706664e-11 8.6972282932247808e-12 6.4566972080450733e-11 0.0012455606978688124 -58.776536899199989 -178.58832514800000 78.755181813599989 1584.4809985467919 0.0000000000000000 0.0000000000000000 0.0000000000000000 0.0000000000000000 3.1697852274459732 3.3460130896377502 1.1762974595389086 1.0844482845501633 1303.5445694454015 1303.9691813535833 1.0845725305910980 
-75.622773063624606 -186.01334396978302 64.558589895053643 -75.622773063624621 -186.01334396978299 64.558589895053629 -210.85452285731438 -2.8792916683348126e-06 -4.8763983029949025e-06 -2.3494375607097888e-06 -211.88793056226601 1.8898248549392701e-08 5.8093690968874520e-09 3.5689245606818076e-05 0.0011730504327753623 8.9903994807464510e-12 5.7389446295027698e-12 2.0510322786843160e-11 0.0011446923678271102 -74.463376691600018 -184.94281327599995 72.225767276240006 1182.3928641350060 0.0000000000000000 0.0000000000000000 0.0000000000000000 0.0000000000000000 3.1695020809551839 3.3454111920267380 1.1759779734461788 1.0844482845501631 1318.2090445811666 1318.1432075605621 1.0844251560514386 
-70.831681932868619 -212.93412497547965 79.771533875193768 -70.831681932868619 -212.93412497547962 79.771533875193768 -205.84763912190283 5.7672177885188204e-07 1.1129174275803954e-06 -7.8527990379739738e-06 -205.56210862922700 1.7847101824175482e-08 7.3023843638608801e-09 3.1749212897835832e-05 0.0011494922804378542 1.2229416439721445e-13 2.9618744853304902e-12 1.6866614246355388e-11 0.0011550557651927198 -69.736773305200003 -211.58846536000007 86.592267764799999 1391.6778601551057 0.0000000000000000 0.0000000000000000 0.0000000000000000 0.0000000000000000 3.1695943928981776 3.3456256642228483 1.1761007997994670 1.0844482845501635 1306.0915396634232 1306.0849151729622 1.0844818433740799 
-88.141744935494799 -208.57502647322380 83.706324893649082 -88.141744935494813 -208.57502647322374 83.706324893649054 -201.05689259009250 4.4554136129227505e-06 -2.0964676231197808e-06 -9.2047585661801040e-06 -212.04028592722463 2.1644890130234629e-08 7.0606364088732221e-09 3.0730133003586957e-05 0.0011405719419837377 -1.6757176982334008e-11 1.2543662389161031e-11 -1.5995099644145328e-11 0.0011546929112375890 -86.813844096400004 -207.27391660800001 90.308128229600001 1955.0875990986240 0.0000000000000000 0.0000000000000000 0.0000000000000000 0.0000000000000000 3.1697141346923581 3.3458647772408558 1.1762201268782293 1.0844482845501637 1304.5038428245321 1304.2593366972758 1.0845368653569065 
-75.531784579123212 -213.94129637252854 94.665018701597006 -75.531784579123212 -213.94129637252854 94.665018701597006 -194.50972412308212 -5.0517434545081640e-07 4.6275352274274721e-07 -2.6271620619827953e-06 -198.04267872165187 1.8878294510971113e-08 7.3582276938211083e-09 2.7891917589784050e-05 0.0011153725821520892 2.8360293165245313e-12 -1.6662162420725470e-12 8.2577337782917688e-12 0.0011266939106751870 -74.373612905599998 -212.58534351999998 100.65708370800000 988.41240310934302 0.0000000000000000 0.0000000000000000 0.0000000000000000 0.0000000000000000 3.1697191311974029 3.3458895251192025 1.1762402170757214 1.0844482845501633 1291.9202657272056 1292.0291894823933 1.0845461566655430 
-66.795303731367952 -186.73783357287391 102.45297257361901 -66.795303731367923 -186.73783357287380 102.45297257361894 -179.39275492407450 1.2546318773559249e-06 -1.1202286954300576e-05 -1.4567795873887503e-05 -1.3909255698776797e-19 1.6961524101910538e-08 5.8495287502680071e-09 2.5874898859967750e-05 0.0010736046604005903 1.9775956188942902e-12 8.0330133490316453e-11 7.1424354474376895e-12 1.9105741042112256e-20 -65.754724465942374 -185.65989863464350 108.01171823852535 1808.0980320372519 0.0000000000000000 0.0000000000000000 0.0000000000000000 0.0000000000000000 3.1688529101721756 3.3440246969630167 1.1752388124612902 1.0842634030565677 1258.4337062659929 1257.8244999192152 1.0840841760241153 
-84.743518384073781 -209.67295710068478 103.52584107589080 -84.743518384073795 -209.67295710068476 103.52584107589078 -185.28801820494758 1.9485376738667962e-06 -2.0360781027813314e-06 -1.0897392174474972e-05 -182.31881860747063 2.0899328295742592e-08 7.1215303654170725e-09 2.5597034362334625e-05 0.0010923717115209530 -1.1108014013802756e-11 5.8060899430238297e-12 3.0458991287478457e-11 0.0010915959044361153 -83.461357431600007 -208.36062644399999 109.02489266960001 1287.0831768928649 0.0000000000000000 0.0000000000000000 0.0000000000000000 0.0000000000000000 3.1697794074909047 3.3460093955630721 1.1762997652908200 1.0844482845501644 1268.2014202680718 1269.0806111460624 1.0845735825663245 
-42.269301804366599 -130.54997046489319 57.706212879797739 -42.269301804366599 -130.54997046489322 57.706212879797732 -168.25036692602441 8.2216645448606546e-06 6.2749745549331100e-06 -1.6498162786968225e-05 -170.21739115769853 1.1580570530300706e-08 2.7333865171286224e-09 3.7463957301753232e-05 0.0010951435889319417 -1.3112636786100093e-11 5.1974788560763887e-12 1.0020861412751256e-10 0.0011963083148960464 -41.558840772800004 -130.04627243999997 65.754654395919971 2180.9238908936368 0.0000000000000000 0.0000000000000000 0.0000000000000000 0.0000000000000000 3.1695887252531780 3.3456023014742722 1.1760828110942969 1.0844482845501631 1245.5107683634485 1245.7930153528125 1.0844734979493897 
-23.242458944707398 -134.99423280091077 47.277290193041921 -23.242458944707401 -134.99423280091079 47.277290193041914 -190.77517923934047 5.3489325726406760e-06 2.7601172834973618e-06 -6.4460380617779113e-06 -191.73552476288774 7.4061221322363480e-09 2.9798453704543700e-09 4.0164966161881914e-05 0.0011692275628379274 -6.1507082468921059e-12 8.2701400203916623e-12 1.9436103101359322e-11 0.0011584689808363162 -22.788097858800000 -134.44511465599999 55.905993737599999 935.86986824075086 0.0000000000000000 0.0000000000000000 0.0000000000000000 0.0000000000000000 3.1695096043592583 3.3454377671501776 1.1759973021416010 1.0844482845501633 1278.6207690150770 1278.2165338299162 1.0844341062861576 
-11.319650332118671 -103.83308950662176 53.845385376753249 -11.319650332118671 -103.83308950662173 53.845385376753249 -188.80254032377886 -4.5679818087781550e-06 -2.0314477497871160e-06 -2.2894842741029282e-05 -186.08346766632076 4.7902838917757151e-09 1.2516724323674564e-09 3.8463881223194107e-05 0.0011650116317231589 3.4255078926212073e-12 -3.9619841463459119e-11 1.3402861485665391e-11 0.0011586729900339007 -11.025769398400001 -103.60243655599999 62.108642139439993 1284.9349949311236 0.0000000000000000 0.0000000000000000 0.0000000000000000 0.0000000000000000 3.1695249143735249 3.3454699267776244 1.1760141783149192 1.0844482845501635 1281.0314370990975 1281.2328981711687 1.0844418800442885 
-29.533290017545987 -141.37867521610224 62.277130198001650 -29.533290017545987 -141.37867521610224 62.277130198001650 -166.78257972570935 6.4497355408191766e-06 8.4815031772082896e-06 -1.8169234755520448e-05 -164.24798361235105 8.7863169240254263e-09 3.3339387917052932e-09 3.6280125703669341e-05 0.0010794701031085060 -1.8957265777282984e-11 1.0963730271257092e-11 9.0769381500719862e-11 0.0012050547231264315 -28.994254794799993 -140.76430841599998 70.071247290159988 2176.9829965296321 0.0000000000000000 0.0000000000000000 0.0000000000000000 0.0000000000000000 3.1696178929282208 3.3456642106297569 1.1761156177538821 1.0844482845501631 1235.5887150456531 1236.1747121071742 1.0844886054455765 
-104.96067511379081 -195.21853015733097 87.658511291210502 -104.96067511379080 -195.21853015733095 87.658511291210502 -192.81025000847214 -1.5367415556448723e-06 -6.9109601507725336e-08 -7.8153379313137529e-06 -200.28857109841007 2.5334935732646002e-08 6.3198862809699100e-09 2.9706547842067718e-05 0.0011233259832832030 5.0278327537128127e-12 -1.2018316626410664e-11 -7.3680291076049510e-14 0.0011127013318745916 -103.40639267600000 -194.05392295999994 94.040416199999996 2662.2783756828549 0.0000000000000000 0.0000000000000000 0.0000000000000000 0.0000000000000000 3.1696813385578548 3.3458073295485322 1.1761956612847209 1.0844482845501640 1285.4218289005526 1286.7809267804573 1.0845255955079889 
-83.777661411420368 -163.13812957946428 70.463249585719012 -83.777661411420411 -163.13812957946436 70.463249585719026 -196.30526229259016 -1.0549576196285475e-05 -9.3875975964689952e-06 -1.3800719346564101e-05 -193.68758085304634 2.0687424912013697e-08 4.5407110293993469e-09 3.4159985242254720e-05 0.0011409789136323538 3.9532735527265266e-11 3.1302161294757686e-11 1.1779502874528960e-10 0.0013476387478860710 -82.508500824799995 -162.30138233600007 77.801893530400037 2229.3857910936085 0.0000000000000000 0.0000000000000000 0.0000000000000000 0.0000000000000000 3.1697915432556614 3.3460277450216065 1.1763058067222438 1.0844482845501635 1290.7664532131746 1291.3524699810071 1.0845763948781804 
-28.516443770116357 -125.51429830342775 123.15236898572186 -28.516443770116350 -125.51429830342784 123.15236898572178 -85.796762180200730 -7.8378369459073656e-06 1.7438716421860273e-06 2.4445309931467654e-05 -5.2456019787497116e-20 8.5632240465205456e-09 2.4540948162510290e-09 2.0513918169484665e-05 0.00075620478371523790 7.1187863084556951e-11 -8.1242088232447461e-12 -5.7216151599029354e-11 6.6994119981683204e-21 -27.991095225219734 -125.06206457489009 127.55940664489751 1124.7619503421174 0.0000000000000000 0.0000000000000000 0.0000000000000000 0.0000000000000000 3.1693077203495075 3.3450000049533197 1.1757607377310395 1.0845241769930174 1084.1110589175807 1077.4794604009112 1.0843249226754399 