# For a description of the Tecplot format see the Tecplot User's guide.
#
Variables=x,y,z,s_u,s_v,s_w,s_p,mono_f_vel_u,mono_f_vel_v,mono_f_vel_w,const,u_nu,v_nu,w_nu,p_nu,x_nu,y_nu,z_nu,const,u_ref,v_ref,w_ref,vol_ref,x_ref,y_ref,z_ref,const,I1,I2,I3,J,p1,p2,p3
Zone f=fepoint, n=356, e=1130, et=brick, c=black
-65.8925 -97.5399 91.5475 -65.892506105368241 -97.539879188051188 91.547548405467566 -32.515960620227105 -1.4631764998898068e-06 8.2421640526440513e-07 1.5727718791426132e-06 3.0089224620993986e-22 8.0646523833993743e-10 5.7126525732087430e-11 3.3958241685283497e-07 1.3672272115989754e-05 7.2592842256292711e-13 -4.7899943673925108e-13 -4.3880967946719407e-14 -7.7654719870265465e-23 -65.754724465942431 -97.517594547729473 92.373562431030237 2074.8615187338191 0.0000000000000000 0.0000000000000000 0.0000000000000000 0.0000000000000000 3.0214268876397328 3.0429595515556538 1.0215328134781847 1.0107141671501390 180.72403533263204 174.32045679161419 1.0107090647764816 
-75.902937677356149 -130.62778827177442 77.957156967574392 -75.902937677356164 -130.62778827177448 77.957156967574377 -32.443128122480523 -2.8894450458927707e-06 -7.1915808752479651e-08 -3.1626062603608526e-09 -31.381669873946933 9.1212856365152629e-10 1.7324719436828670e-10 3.8123022538805179e-07 1.3640750466328895e-05 1.2897228729269841e-12 1.1425751082605661e-13 1.1249062432702764e-15 1.3751578071571342e-05 -75.747104543999981 -130.56019973999997 78.884476808000016 2128.8259272129790 0.0000000000000000 0.0000000000000000 0.0000000000000000 0.0000000000000000 3.0214339104589931 3.0429737084840340 1.0215399479016261 1.0107141671501390 181.33400946631977 167.78233415987580 1.0107125941275084 
-63.555842751269914 -121.85018842560692 70.255903176231826 -63.555842751269907 -121.85018842560692 70.255903176231826 -31.414949144694315 7.1801637130805184e-07 3.6467399406934990e-07 2.2240040595802474e-08 -29.615412415924318 7.8180972459818143e-10 1.4244483370617900e-10 4.0483074559283239e-07 1.3656874338646942e-05 -4.9194522932338610e-13 -8.8536958082552150e-13 5.5006310390379636e-13 1.2023337997031445e-05 -63.422274742800013 -121.79461816400000 71.240629883439979 1237.7701333319521 0.0000000000000000 0.0000000000000000 0.0000000000000000 0.0000000000000000 3.0214459742714714 3.0429977713730310 1.0215519466437435 1.0107141671501392 177.17751533337923 129.47122132156730 1.0107185294720689 
-56.272752767570985 -132.14921885914742 75.697250475554910 -56.272752767570985 -132.14921885914740 75.697250475554924 -29.348421909288628 1.8542146168011327e-06 7.6447358472978087e-07 -1.4374477089160962e-06 -30.124533515528050 7.0493656398329385e-10 1.7859408396603269e-10 3.8815572289685463e-07 1.2820408267644195e-05 -4.3725065821102123e-13 5.4920559983979460e-14 9.3485139072165926e-13 1.5084900106244454e-05 -56.152318124399997 -132.07954718800002 76.641416164000006 2090.5778096190215 0.0000000000000000 0.0000000000000000 0.0000000000000000 0.0000000000000000 3.0214176053184034 3.0429410640844750 1.0215236086881616 1.0107141671501390 175.35221397730331 156.39654509208222 1.0107045122825382 
-123.13887791904891 -110.42733344599993 88.357633032386545 -123.13887791904889 -110.42733344599995 88.357633032386531 -36.942485040052723 -1.8203347484023548e-07 4.2021037672868515e-07 -2.4580174701260754e-06 -37.744997456597375 1.4107084077286116e-09 1.0235262637436906e-10 3.4935792769807961e-07 1.4700599463482097e-05 -8.6002875997467087e-14 -3.2586838986432804e-13 4.7455400042012517e-13 1.4826924457412192e-05 -122.89786571200003 -110.38740333199999 89.207425400000020 2092.2379289329847 0.0000000000000000 0.0000000000000000 0.0000000000000000 0.0000000000000000 3.0214408555132830 3.0429875661007304 1.0215468602845108 1.0107141671501387 190.10125480151899 188.99270315482448 1.0107160137073803 
-123.01059646116234 -128.56888455338699 92.664251089799137 -123.01059646116234 -128.56888455338702 92.664251089799123 -35.652829500870347 -2.4385890621020961e-07 3.2953747674754980e-07 -2.3559985553486510e-06 -37.058664348797912 1.4093548793281396e-09 1.6602250130226539e-10 3.3616028560778943e-07 1.4262763765567230e-05 -3.4511927129790000e-14 -3.4935387005205123e-13 2.5798820070688916e-13 1.3524905241435739e-05 -122.76981557999994 -128.50411506799998 93.481940963999989 2295.0048277193882 0.0000000000000000 0.0000000000000000 0.0000000000000000 0.0000000000000000 3.0214429859798804 3.0429917514356650 1.0215489149457149 1.0107141671501390 187.22584630204346 189.27275944650688 1.0107170296704733 
-87.510710244163008 -119.60566763819980 107.30314998811043 -87.510710244162979 -119.60566763819985 107.30314998811039 -32.510759064255453 -8.3215286281582450e-07 1.2335523313498196e-06 -2.3108532224226785e-06 -3.5179390269711170e-21 1.0346542476946665e-09 1.3456888381391252e-10 2.9129932044291706e-07 1.3337609393523117e-05 5.2680322778140075e-13 -7.0010749622967745e-13 4.4321884841945237e-13 8.8309790015354848e-22 -87.333945182495114 -119.55317056945796 108.01171823852533 1853.2119812635015 0.0000000000000000 0.0000000000000000 0.0000000000000000 0.0000000000000000 3.0214260415217491 3.0429581021987624 1.0215322108980553 1.0107141671501390 181.77289238601040 182.42503262878716 1.0107087672113115 
-122.13601713198155 -119.00096045301017 106.32177380258710 -122.13601713198156 -119.00096045301017 106.32177380258712 -33.699040669460061 -1.0829608212268358e-07 7.2162054574209371e-07 -1.1410614361080887e-06 -33.419421354865442 1.4001231250782011e-09 1.3245091134983511e-10 2.9430675230202047e-07 1.3603478982918061e-05 -6.3294775258731808e-15 -4.7172334170923006e-13 3.3597203260176493e-13 1.3669624693336267e-05 -121.89681335200000 -118.94929134799999 107.03765745040002 1571.7251237143605 0.0000000000000000 0.0000000000000000 0.0000000000000000 0.0000000000000000 3.0214345563261094 3.0429747379023726 1.0215403306952393 1.0107141671501394 183.37035193467497 183.47409230438413 1.0107127834989507 
-44.274301966573397 -163.73724453849712 123.05874645018599 -44.274301966573383 -163.73724453849715 123.05874645018596 -24.790634911595667 3.0375344231286552e-06 -3.4960562257050687e-06 1.5429990995478081e-06 0.0000000000000000 5.7829038432877233e-10 2.8946800512130721e-10 2.4301623291478336e-07 1.0856920861358886e-05 -1.8768657808888065e-12 2.0447890802878059e-12 1.7137548054262324e-13 0.0000000000000000 -44.175503749389662 -163.62432261291502 123.64986896362305 1288.7765825848380 0.0000000000000000 0.0000000000000000 0.0000000000000000 0.0000000000000000 3.0213944643182056 3.0428942171338611 1.0214999010032755 1.0107344195559813 165.83093974917170 167.54357100522245 1.0106927861074386 
-15.525183683109409 -143.95059854994622 135.56509065912599 -15.525183683109413 -143.95059854994628 135.56509065912593 -25.081526375476273 7.7520550218423227e-07 -2.0698113804663177e-06 1.2514800678388726e-06 -25.569290736043325 2.7484386294629464e-10 2.2001206412269880e-10 2.0469047656845873e-07 1.0826713274012241e-05 -2.4277886998843716e-13 1.3065443943257857e-12 -2.2615045602438907e-13 1.0471994118976332e-05 -15.478227839600008 -143.86476845600004 136.06298808800005 1207.7015194609139 0.0000000000000000 0.0000000000000000 0.0000000000000000 0.0000000000000000 3.0213095689618519 3.0427239034894380 1.0214144820958073 1.0107041897047995 167.92943184783832 167.79024528389391 1.0106505256079694 
-44.274301966573397 -163.73724453849712 138.81434291226154 -44.274301966573383 -163.73724453849715 138.81434291226162 -28.299641057068342 2.1638653584392513e-07 -1.5509394801531540e-06 1.6401541116453032e-06 0.0000000000000000 5.7829038432877233e-10 2.8946800512130721e-10 1.9473314560869426e-07 1.1839328707044317e-05 -1.7382306786867169e-13 1.1763699462401712e-12 -5.3266953177455804e-13 0.0000000000000000 -44.175503749389669 -163.62432261291511 139.28801968872074 2260.0113226803110 0.0000000000000000 0.0000000000000000 0.0000000000000000 0.0000000000000000 3.0214117727128671 3.0429291797770808 1.0215175562915964 1.0107097851024784 174.37824931285095 174.07773280643235 1.0107015171070790 
-5.9114931170987486 -161.56868203462972 129.88515900808810 -5.9114931170987477 -161.56868203462972 129.88515900808810 -30.021444356391026 2.0505074826100508e-06 -1.6868700569744154e-06 1.0081083654828459e-06 -31.142852485827078 1.7337176486109662e-10 2.8184438116696242e-10 2.2209665773154083e-07 1.2284211473651244e-05 -9.8640588979617834e-13 1.1634995873600625e-12 -3.1882579162673835e-13 1.2050195777598399e-05 -5.8818733370400009 -161.45872929999999 130.42539591680000 1840.5999298976626 0.0000000000000000 0.0000000000000000 0.0000000000000000 0.0000000000000000 3.0214544780019117 3.0430149337937928 1.0215606057707620 1.0107141671501381 177.55843699623978 177.30943891066684 1.0107228134505424 
-9.8173310646172744 -107.14440469926882 182.84362444745753 -9.8173310646172762 -107.14440469926879 182.84362444745756 -33.017828902241398 -4.8927837789607281e-07 2.4667503281119044e-07 9.9512177658811617e-07 -33.228992397178068 2.1459789154021361e-10 9.0833396360068264e-11 5.9805232766052527e-08 1.2109986908884243e-05 -6.1418468672929215e-14 -2.6517052538001136e-13 5.7938532203335351e-14 1.2368740210344813e-05 -9.7806680107999995 -107.10896956400003 182.98909712000000 1021.2952016557671 0.0000000000000000 0.0000000000000000 0.0000000000000000 0.0000000000000000 3.0214369490153254 3.0429797179143456 1.0215429185211020 1.0107141671501390 182.46782857810123 182.41866345236966 1.0107140636374308 
-17.616493761881443 -108.67476497314870 193.32658644484451 -17.616493761881440 -108.67476497314871 193.32658644484448 -34.009655959763940 -7.9540453713970123e-07 3.0081853004480527e-07 5.0971901767237065e-07 -34.477518882063123 2.9691636302398017e-10 9.6196800525305574e-11 2.7680151060138769e-08 1.1901253337189012e-05 -2.5821458449082623e-13 -2.8939986068755724e-13 1.8573632328644035e-13 1.2224471020785228e-05 -17.565766725200003 -108.63723447200002 193.39391677600000 1230.2822850381203 0.0000000000000000 0.0000000000000000 0.0000000000000000 0.0000000000000000 3.0214360366518851 3.0429778831639562 1.0215419961095917 1.0107141671501378 184.73269969833811 184.68813625030614 1.0107136072868139 
-44.274301966573397 -119.60566763819980 170.32553583641268 -44.274301966573468 -119.60566763819968 170.32553583641297 -33.240667021993850 1.0183353106177442e-07 9.3110499155468521e-07 1.5004056989704137e-06 0.0000000000000000 5.7829038432877233e-10 1.3456888381391252e-10 9.8166970108337637e-08 1.2132176925064643e-05 4.8347032075793959e-14 -5.2013818074363137e-13 3.4627537490414173e-13 0.0000000000000000 -44.175503749389591 -119.55317056945772 170.56432113891603 1872.3464537223574 0.0000000000000000 0.0000000000000000 0.0000000000000000 0.0000000000000000 3.0214426763948570 3.0429912022115380 1.0215486754901608 1.0107141671501396 182.87890062897907 183.04266181238515 1.0107169120242985 
-9.3676921225663019 -124.45624693511617 188.76328209847156 -9.3676921225663019 -124.45624693511617 188.76328209847156 -33.266943531723925 -4.0873825970711579e-07 -3.4421512662010996e-07 7.1924056528531692e-07 -33.257563917679505 2.0985217036306733e-10 1.5158940769310900e-10 4.1664411698505432e-08 1.1981141609791274e-05 -1.7130048707599763e-13 1.4623503562652566e-13 -2.3311109577397030e-14 1.2092895587024279e-05 -9.3318398883999993 -124.39710846400000 188.86462832000004 1016.3527334425750 0.0000000000000000 0.0000000000000000 0.0000000000000000 0.0000000000000000 3.0214356261428779 3.0429770598628636 1.0215415833123684 1.0107141671501385 183.05523390600248 183.02508428760660 1.0107134030496685 
-44.274301966573397 -163.73724453849712 107.30314998811043 -44.274301966573383 -163.73724453849715 107.30314998811039 -27.421180438131806 9.5847368992457857e-07 -4.5783162748980017e-06 -4.1577936711385939e-06 1.9687801929004256e-20 5.7829038432877223e-10 2.8946800512130716e-10 2.9129932044291706e-07 1.1650958366848527e-05 -4.9352713152424579e-13 2.4745095540491709e-12 4.0189267033735217e-13 -4.9448595644529750e-21 -44.175503749389662 -163.62432261291499 108.01171823852535 1450.3671205666894 0.0000000000000000 0.0000000000000000 0.0000000000000000 0.0000000000000000 3.0215510467989901 3.0432096926728196 1.0216587995004323 1.0107544393673975 172.86161361089947 174.44418233841438 1.0107713873799506 
-61.283124457213766 -161.06410774864068 85.128922886227699 -61.283124457213738 -161.06410774864068 85.128922886227684 -32.485998178573041 -1.5524636466463190e-06 -3.8061223170586382e-06 -9.0394894162600681e-07 -33.072745396805274 7.5781854055878561e-10 2.8008564911807815e-10 3.5925231878231045e-07 1.2883270505167790e-05 7.3529143292155239e-13 2.0328108122552508e-12 7.9648380897341253e-13 1.3681543214446147e-05 -61.153654769600031 -160.95484587600001 86.002782780800032 1645.6757988676138 0.0000000000000000 0.0000000000000000 0.0000000000000000 0.0000000000000000 3.0213625469882208 3.0428310254803730 1.0214686289924066 1.0106968985830418 182.33639262944837 182.14758105318290 1.0106773123591746 
-44.331600048598759 -168.12053401978119 82.382054080297422 -44.331600048598752 -168.12053401978119 82.382054080297408 -34.290193192194565 6.5272899467787388e-08 -3.8312419824039601e-06 -5.7855927822146083e-07 -31.685686346750632 5.7889864776838894e-10 3.0484265112207254e-10 3.6767010658245169e-07 1.3348621384564942e-05 1.3914427677094788e-14 2.0954982901980268e-12 5.5489542366836197e-13 1.3313505062919306e-05 -44.232698507600013 -168.00161050399998 83.276389748800028 1737.4139093181343 0.0000000000000000 0.0000000000000000 0.0000000000000000 0.0000000000000000 3.0214327240456105 3.0429710203201359 1.0215384452764380 1.0107141671501390 184.68884097959761 184.39836365866179 1.0107118508459938 
-44.274301966573397 -185.80303298864575 107.30314998811043 -44.274301966573383 -185.80303298864581 107.30314998811041 -35.033129122096689 -1.4130223243020218e-07 -1.9546735244048108e-06 -1.7877608961989334e-06 -1.4569045361730006e-21 5.7829038432877233e-10 3.6689626337071951e-10 2.9129932044291706e-07 1.3530825006890436e-05 1.9089355791850740e-13 1.2259283240528912e-12 9.1873020281102748e-14 3.6700925387409614e-22 -44.175503749389676 -185.65989863464350 108.01171823852533 1616.4576808433910 0.0000000000000000 0.0000000000000000 0.0000000000000000 0.0000000000000000 3.0214153468040474 3.0429363228719843 1.0215211250961211 1.0107097406278978 186.34363801508806 186.24327598357542 1.0107032821867583 
-87.510710244163008 -141.67145608834846 138.81434291226154 -87.510710244162979 -141.67145608834838 138.81434291226157 -31.637502142402631 -7.3794035653143262e-07 -3.0919757246881825e-07 7.3936929611204686e-07 0.0000000000000000 1.0346542476946663e-09 2.1201135291804005e-10 1.9473314560869426e-07 1.2713986889174294e-05 4.3414195213779076e-13 2.1586326089211083e-13 -6.9621755273441130e-14 0.0000000000000000 -87.333945182495100 -141.58874659118649 139.28801968872074 1877.7986991733408 0.0000000000000000 0.0000000000000000 0.0000000000000000 0.0000000000000000 3.0213814415357381 3.0428680481573069 1.0214867550037925 1.0106861879464082 180.06214350759356 179.63227263396192 1.0106862758548132 
-65.892506105368213 -163.73724453849712 138.81434291226154 -65.892506105368255 -163.73724453849715 138.81434291226165 -30.047188389099070 -1.5596783367010028e-06 -5.7423800183044787e-07 1.2707499091454682e-06 -3.6559743409521641e-22 8.0646523833993733e-10 2.8946800512130721e-10 1.9473314560869426e-07 1.2289947492484238e-05 9.6196776576494278e-13 4.3855842212951334e-13 -2.6422345339318114e-13 9.1324282207289648e-23 -65.754724465942374 -163.62432261291517 139.28801968872077 2018.1238718776010 0.0000000000000000 0.0000000000000000 0.0000000000000000 0.0000000000000000 3.0213750288496293 3.0428552841220231 1.0214804036926424 1.0107015743939616 177.15946592693851 177.18562321513471 1.0106831375415413 
-87.510710244163008 -163.73724453849712 123.05874645018599 -87.510710244162979 -163.73724453849715 123.05874645018595 -32.279834200196333 -1.1276286687535201e-06 -7.4607079875494627e-07 -6.2800599910242874e-07 0.0000000000000000 1.0346542476946663e-09 2.8946800512130721e-10 2.4301623291478336e-07 1.2959764171656271e-05 6.6558450515318027e-13 4.5424234468507627e-13 1.3313660935161848e-13 0.0000000000000000 -87.333945182495114 -163.62432261291505 123.64986896362312 1549.0027140339625 0.0000000000000000 0.0000000000000000 0.0000000000000000 0.0000000000000000 3.0214604546999468 3.0430268925831663 1.0215665877477098 1.0107167990642114 181.56212827837399 181.90671533379921 1.0107257721748339 
-87.510710244163008 -141.67145608834846 123.05874645018599 -87.510710244162979 -141.67145608834838 123.05874645018596 -29.705911794722994 -3.0681595777562843e-06 -1.1488039896708836e-06 7.5867556424366927e-08 0.0000000000000000 1.0346542476946663e-09 2.1201135291804010e-10 2.4301623291478336e-07 1.2294861749131600e-05 1.7909033304524098e-12 6.0039730519114077e-13 1.2935048479954924e-13 0.0000000000000000 -87.333945182495086 -141.58874659118649 123.64986896362313 1389.1126189879024 0.0000000000000000 0.0000000000000000 0.0000000000000000 0.0000000000000000 3.0213740634100605 3.0428522156339572 1.0214782976599610 1.0107089596366974 176.22050116179159 175.87635223941933 1.0106821005859681 
-45.298278649877432 -110.37356733355848 47.694215994613280 -45.298278649877425 -110.37356733355848 47.694215994613280 -40.367224090757531 7.2000110309114770e-07 1.3730191753807087e-06 -1.6703654899648883e-06 -40.355689934411423 5.8909957120767399e-10 1.0216916201954973e-10 4.7397113123182061e-07 1.6309235311275425e-05 1.4185920117588862e-13 -3.2856556018449694e-13 7.8632442865952787e-13 1.5856397217908243e-05 -45.197633928000002 -110.33371083599998 48.847122559999995 1069.0094105005942 0.0000000000000000 0.0000000000000000 0.0000000000000000 0.0000000000000000 3.0214376627970050 3.0429811471942001 1.0215436340172788 1.0107141671501396 195.33166019188803 195.23668462364714 1.0107144176094103 
-57.245822419228212 -98.855343302057989 45.053444635561966 -57.245822419228247 -98.855343302057946 45.053444635561974 -43.145645700880827 -8.5358062423149801e-07 1.4389862147737115e-06 -2.2743942631271954e-06 -43.245651555366422 7.1520726493967679e-10 6.1742944090781280e-11 4.8206378155946094e-07 1.7189766057842189e-05 8.3989004691295771e-13 -2.3214560941716038e-13 7.5659138414440210e-13 1.8187414314043367e-05 -57.123633070400032 -98.831257531200038 46.226036100800002 1475.5774262919704 0.0000000000000000 0.0000000000000000 0.0000000000000000 0.0000000000000000 3.0214372087422934 3.0429802343018220 1.0215431751697854 1.0107141671501392 200.56577841096799 200.56013536672333 1.0107141906408541 
-60.267278971250498 -105.62034220429376 56.171185885755314 -60.267278971250477 -105.62034220429381 56.171185885755328 -39.065700151849263 8.3169792324737698e-08 4.1312168666632695e-06 -3.8414839236498485e-06 -32.072074098782778 7.4709853234433687e-10 8.5482093625799381e-11 4.4799341858414721e-07 1.5882928145678191e-05 7.2851063827687371e-13 -1.1633852420126661e-12 2.2100153091851985e-12 1.8929068083035098e-05 -60.139641125599979 -105.58699381199996 57.260903223199996 1724.6135661994952 0.0000000000000000 0.0000000000000000 0.0000000000000000 0.0000000000000000 3.0214361241769607 3.0429780582347088 1.0215420836582980 1.0107141671501394 192.41523952445911 192.37277276936084 1.0107136507270551 
-19.460072361930802 -88.125450794725268 56.612650059965183 -19.460072361930802 -88.125450794725253 56.612650059965183 -39.382934055633726 -6.7797959240143728e-07 5.1414230850471700e-07 -3.3224372840975556e-06 -39.669605750009048 3.1637699057784907e-10 2.4079141458521750e-11 4.4664055010024134e-07 1.5986271569239917e-05 1.3301430440185429e-13 -7.9075632359523826e-13 2.4664510007471112e-13 1.6040109115888568e-05 -19.406020858399991 -88.116056368799974 57.699076624800000 1439.6451283969650 0.0000000000000000 0.0000000000000000 0.0000000000000000 0.0000000000000000 3.0214366637551393 3.0429791394433434 1.0215426252893836 1.0107141671501396 193.94599765164622 194.08968222808340 1.0107139186558778 
-58.901712261690626 -178.72176384405466 77.826890941102121 -58.901712261690612 -178.72176384405472 77.826890941102121 -38.450790664561055 -5.9063637754043057e-07 -7.3390829720681210e-07 -9.8304949060132892e-07 -39.103271891419013 7.3268230024736702e-10 3.4203351262362952e-10 3.8162942228581192e-07 1.4450293030040801e-05 3.4368572594657238e-13 1.3874420735965936e-13 7.3484696192243740e-13 1.5708573489255240e-05 -58.776536899199989 -178.58832514800000 78.755181813599989 1584.4809985467919 0.0000000000000000 0.0000000000000000 0.0000000000000000 0.0000000000000000 3.0214686301954479 3.0430434311241847 1.0215749514328130 1.0107141671501392 192.62946803768955 192.73249514080348 1.0107299111291204 
-74.616890737275867 -185.08496445216068 71.248439154015159 -74.616890737275867 -185.08496445216068 71.248439154015159 -39.658462007984234 -4.8285414723524240e-07 -6.1165588226504365e-07 -3.1006678391219694e-07 -39.813704958455510 8.9855844639941108e-10 3.6437722283899637e-10 4.0178912219523966e-07 1.4822092944601620e-05 1.5181539104786978e-13 3.6259849577642265e-14 2.3288995622109018e-13 1.4549928520079567e-05 -74.463376691600018 -184.94281327599995 72.225767276240006 1182.3928641350060 0.0000000000000000 0.0000000000000000 0.0000000000000000 0.0000000000000000 3.0214318119815502 3.0429692058645652 1.0215375428035363 1.0107141671501394 194.77781034886382 194.75182786334406 1.0107114038476388 
-69.881748619194894 -211.76714972483256 85.722835024026153 -69.881748619194909 -211.76714972483254 85.722835024026153 -38.918729808375090 5.3675858135793422e-08 1.4991816546833447e-07 -1.0268915060189811e-06 -38.852312610488049 8.4857653889769412e-10 4.5803380532838384e-10 3.5743227733142641e-07 1.4549602393971115e-05 -7.0827568324819734e-14 4.4093784350720779e-14 2.2695428167161837e-13 1.4658823574476856e-05 -69.736773305200003 -211.58846536000007 86.592267764799999 1391.6778601551057 0.0000000000000000 0.0000000000000000 0.0000000000000000 0.0000000000000000 3.0214452169504638 3.0429965173421252 1.0215514507663850 1.0107141671501392 192.97907114417549 192.98397550474053 1.0107182851454639 
-86.989669581958367 -207.44668540270146 89.466602367233136 -86.989669581958395 -207.44668540270143 89.466602367233151 -38.362714948335494 4.9925010057376759e-07 -2.2874220897640829e-07 -1.2326745409663943e-06 -39.865396663248688 1.0291573947218691e-09 4.4286127542925153e-10 3.4595948927851339e-07 1.4436551146460912e-05 -1.7901825801608045e-13 1.3220644671773990e-13 -1.4137649157540373e-13 1.4627091199707148e-05 -86.813844096400004 -207.27391660800001 90.308128229600001 1955.0875990986240 0.0000000000000000 0.0000000000000000 0.0000000000000000 0.0000000000000000 3.0214594975367079 3.0430250642442767 1.0215657169673149 1.0107141671501387 192.96127515989161 192.98159841911931 1.0107253426707687 
-74.526964790666938 -212.76539467960217 99.893280635525528 -74.526964790666938 -212.76539467960214 99.893280635525528 -37.450208600594706 -8.4909156351441030e-08 6.0717825505009674e-08 -3.1859529612317377e-07 -37.907395580196969 8.9761103758134710e-10 4.6153494914769066e-10 3.1400688760285789e-07 1.4132753319580463e-05 7.1384775823904681e-14 -2.4942163956489677e-14 7.2736395286135691e-14 1.4228520299690698e-05 -74.373612905599998 -212.58534351999998 100.65708370800000 988.41240310934302 0.0000000000000000 0.0000000000000000 0.0000000000000000 0.0000000000000000 3.0214613379873345 3.0430289969851945 1.0215678100071197 1.0107141671501383 191.17195949476289 191.20174745258035 1.0107263786268477 
-65.892506105368213 -185.80303298864575 107.30314998811043 -65.892506105368255 -185.80303298864581 107.30314998811043 -35.482365457895867 8.6373009248846482e-08 -1.3788634378352269e-06 -1.9283484017667587e-06 -9.3101628240966347e-21 8.0646523833993754e-10 3.6689626337071957e-10 2.9129932044291706e-07 1.3679667157227623e-05 -3.6819097612106735e-15 8.8163300734076312e-13 9.8616580187111746e-14 2.3385934365736436e-21 -65.754724465942374 -185.65989863464350 108.01171823852535 1808.0980320372519 0.0000000000000000 0.0000000000000000 0.0000000000000000 0.0000000000000000 3.0213468514820927 3.0427978241606550 1.0214511176356282 1.0106908450253240 186.80208913464236 186.61275921183756 1.0106686461916656 
-83.631126562995647 -208.53488519944045 108.32393356810785 -83.631126562995647 -208.53488519944042 108.32393356810783 -36.299878428265657 1.5590777989351498e-07 -2.0808443863100680e-07 -1.3791895800133289e-06 -35.877687669209088 9.9369617742595118e-10 4.4668821419513449e-10 2.8817112140977486e-07 1.3866893492588086e-05 -9.1109652737884009e-14 5.5607682628024527e-14 3.8341439177518933e-13 1.3837742726659944e-05 -83.461357431600007 -208.36062644399999 109.02489266960001 1287.0831768928649 0.0000000000000000 0.0000000000000000 0.0000000000000000 0.0000000000000000 3.0214685208087682 3.0430433471517868 1.0215749772421516 1.0107141671501381 188.16988030853526 188.38844952972519 1.0107299237377105 
-41.652911920409665 -130.11315633887762 64.728726881436046 -41.652911920409672 -130.11315633887762 64.728726881436046 -34.326694200385020 1.0338875556186327e-06 9.9061972908480937e-07 -2.2138382221789504e-06 -34.405240499466643 5.5062139223127648e-10 1.7144774488997427e-10 4.2176880898914249e-07 1.4347264377041786e-05 -1.2778350711812993e-13 -4.4711460787068350e-14 1.2616175393336472e-12 1.5608506131962584e-05 -41.558840772800004 -130.04627243999997 65.754654395919971 2180.9238908936368 0.0000000000000000 0.0000000000000000 0.0000000000000000 0.0000000000000000 3.0214442545098024 3.0429943947398259 1.0215502899733691 1.0107141671501390 185.62002275150283 189.18124673685318 1.0107177099138716 
-22.848259172202699 -134.51802969767377 54.806100750497507 -22.848259172202695 -134.51802969767377 54.806100750497521 -37.271569895348286 7.1639371007652433e-07 3.9163265670782321e-07 -8.7048520978745148e-07 -37.412516497455961 3.5213952934154408e-10 1.8691692638128646e-10 4.5217673272368591e-07 1.5263159915836405e-05 -9.6157124059274116e-14 8.3378763583105227e-14 2.6716453490081599e-13 1.5101507967390920e-05 -22.788097858800000 -134.44511465599999 55.905993737599999 935.86986824075086 0.0000000000000000 0.0000000000000000 0.0000000000000000 0.0000000000000000 3.0214331815310014 3.0429721358432258 1.0215391038309345 1.0107141671501390 189.99059145252565 189.52311400042962 1.0107121768262788 
-11.064681760186483 -103.63306397136158 61.055332320998218 -11.064681760186486 -103.63306397136154 61.055332320998232 -37.052503766668877 -6.7005136619953653e-07 -2.2765981213993489e-07 -3.1180983966194453e-06 -36.743342621368043 2.2776400210311470e-10 7.8502232492283484e-11 4.3302593866201278e-07 1.5198238823658972e-05 4.7175203531423936e-14 -4.7386370551999966e-13 2.3827616325975845e-13 1.5199818235045467e-05 -11.025769398400001 -103.60243655599999 62.108642139439993 1284.9349949311236 0.0000000000000000 0.0000000000000000 0.0000000000000000 0.0000000000000000 3.0214353654146384 3.0429765313020387 1.0215413154683011 1.0107141671501394 190.34916468711288 190.02731476468000 1.0107132707722297 
-29.065627691767951 -140.84588754655249 69.077738278516264 -29.065627691767954 -140.84588754655249 69.077738278516264 -33.987158548033982 8.8358349179713406e-07 1.1876755010657169e-06 -2.4287748147547490e-06 -33.468510792113591 4.1776207840293900e-10 2.0910806419749406e-10 4.0844123971872648e-07 1.4127429245828591e-05 -2.4294901889351561e-13 1.0235052881913999e-13 1.1390802833273082e-12 1.5703802556248860e-05 -28.994254794799993 -140.76430841599998 70.071247290159988 2176.9829965296321 0.0000000000000000 0.0000000000000000 0.0000000000000000 0.0000000000000000 3.0214484622377826 3.0430028745930424 1.0215545622514826 1.0107141671501392 183.96478517299630 182.56895821576353 1.0107198230310397 
-103.61219303117237 -194.20856615129495 93.226920589995018 -103.61219303117240 -194.20856615129495 93.226920589995004 -37.393285288046805 -2.2978732781279308e-07 1.2996925195757508e-08 -9.8674000110896376e-07 -38.417833104645311 1.2045948370731365e-09 3.9641331883721875e-10 3.3443597091675775e-07 1.4240200409163829e-05 6.1662507385698011e-14 -1.4119506971613277e-13 3.9920024558869194e-14 1.4040205897762979e-05 -103.40639267600000 -194.05392295999994 94.040416199999996 2662.2783756828549 0.0000000000000000 0.0000000000000000 0.0000000000000000 0.0000000000000000 3.0214565240902043 3.0430192617286127 1.0215628883225834 1.0107141671501385 190.63270595099530 190.63492610940872 1.0107239435566311 
-82.676548596007208 -162.41249041118030 76.866443266300081 -82.676548596007237 -162.41249041118036 76.866443266300109 -37.880489091630480 -1.4546589208148708e-06 -1.1635359788761010e-06 -1.7598387684665156e-06 -37.288156061416778 9.8362137532226335e-10 2.8481944580605050e-10 3.8457272077963012e-07 1.4490938530723290e-05 5.8188809984703477e-13 3.4823848889785170e-13 1.3809482164941313e-12 1.6642983995287779e-05 -82.508500824799995 -162.30138233600007 77.801893530400037 2229.3857910936085 0.0000000000000000 0.0000000000000000 0.0000000000000000 0.0000000000000000 3.0214703284745967 3.0430468711785306 1.0215766932488679 1.0107141671501396 191.36510314995704 191.56229823403976 1.0107307730714359 
-28.060655888391526 -125.12211475073703 126.99764556570489 -28.060655888391548 -125.12211475073708 126.99764556570483 -22.509498820531807 -1.1824539883785349e-06 2.6528334105979041e-07 3.7092069450538849e-06 -4.1769100506651096e-21 4.0715477864217147e-10 1.5392601082631074e-10 2.3094545054114235e-07 1.0120462390682541e-05 1.0098070144427031e-12 -1.2964985028608405e-13 -6.3538715369296143e-13 1.0433415393108536e-21 -27.991095225219734 -125.06206457489009 127.55940664489751 1124.7619503421174 0.0000000000000000 0.0000000000000000 0.0000000000000000 0.0000000000000000 3.0214046446507057 3.0429144623940414 1.0215099656829976 1.0107239547398839 162.45505779867165 162.44364471255113 1.0106977595125597 