# For a description of the Tecplot format see the Tecplot User's guide.
#
Variables=x,y,z,s_u,s_v,s_w,s_p,mono_f_vel_u,mono_f_vel_v,mono_f_vel_w,const,u_nu,v_nu,w_nu,p_nu,x_nu,y_nu,z_nu,const,u_ref,v_ref,w_ref,vol_ref,x_ref,y_ref,z_ref,const,I1,I2,I3,J,p1,p2,p3
Zone f=fepoint, n=356, e=1130, et=brick, c=black
-67.8647 -97.8567 78.6019 -67.864681695158239 -97.856746444980203 78.601874654905671 -104.99273872359915 -2.2269799363986126e-05 1.2398584219375097e-05 3.9982090898846526e-05 1.0158567731261854e-19 7.4092161850281002e-08 3.9601697476854270e-09 0.00014029588375308322 0.0041437388482214134 3.3182299452751180e-10 -1.8905298084043284e-10 -4.4078095129561096e-11 -8.2365563715003446e-21 -65.754724465942431 -97.517594547729473 92.373562431030237 2074.8615187338191 0.0000000000000000 0.0000000000000000 0.0000000000000000 0.0000000000000000 3.3642364810962566 3.7569757860386335 1.3933684595023792 1.1804711986937195 2092.7618126168509 2095.0307056359384 1.1804102914012271 
-78.133498316395219 -131.58883553814283 63.423771643523800 -78.133498316395190 -131.58883553814283 63.423771643523786 -105.15455466897841 -4.7006955724209053e-05 -1.0531026769742709e-05 6.9136049662019087e-06 -82.215732662235183 8.3799364891667949e-08 1.2011057259897484e-08 0.00015750235772316046 0.0041412651102868342 6.6664569047333208e-10 2.7942718393730253e-11 -5.7616635663390437e-11 0.0037597471788682977 -75.747104543999981 -130.56019973999997 78.884476808000016 2128.8259272129790 0.0000000000000000 0.0000000000000000 0.0000000000000000 0.0000000000000000 3.3643131074144104 3.7571538624673568 1.3934710752077488 1.1804711986937197 2105.0238730360024 2102.7377033442835 1.1804537605689127 
-65.467705369387858 -122.64034685347384 54.822810891512290 -65.467705369387872 -122.64034685347384 54.822810891512290 -83.468467148886035 1.9448901670008142e-05 -8.3742186093644430e-06 1.1340376924828914e-05 -50.305502499113580 7.1826286585086052e-08 9.8752981347871582e-09 0.00016725273345841174 0.0040492750895713848 -2.3908284744753492e-10 -1.5981226852239406e-10 -2.8315850687567712e-11 0.0033197031049840846 -63.422274742800013 -121.79461816400000 71.240629883439979 1237.7701333319521 0.0000000000000000 0.0000000000000000 0.0000000000000000 0.0000000000000000 3.3644850826895203 3.7574850474438266 1.3936291845556446 1.1804711986937191 2034.6106224283699 2034.3444168142887 1.1805206839512812 
-57.996627330369819 -133.13988646712326 60.899849231964502 -57.996627330369840 -133.13988646712326 60.899849231964488 -71.471770865696058 3.7531582880286060e-05 1.6688192209877381e-06 -1.9439497356560583e-05 -86.909011857744858 6.4763803764300576e-08 1.2381254910209805e-08 0.00016036357201443252 0.0037700308698203357 -3.5175550482495371e-10 6.0528121500647218e-11 3.5353666766848826e-10 0.0045621328538689322 -56.152318124399997 -132.07954718800002 76.641416164000006 2090.5778096190215 0.0000000000000000 0.0000000000000000 0.0000000000000000 0.0000000000000000 3.3641048050556632 3.7567328256584314 1.3932585981365755 1.1804711986937197 2043.7089677166432 2041.1371252669865 1.1803638864890396 
-126.58867277969996 -110.99510324211715 75.039294110299949 -126.58867277969996 -110.99510324211715 75.039294110299934 -172.16844776916736 -2.3104114178346732e-06 6.8543084351823102e-06 -3.5215441760595871e-05 -184.48793124089065 1.2960447171028733e-07 7.0959200737519268e-09 0.00014433456035334302 0.0046326141903166350 -3.2627360419561467e-11 -1.3408082598326822e-10 1.4153139732122202e-10 0.0046749391899133467 -122.89786571200003 -110.38740333199999 89.207425400000020 2092.2379289329847 0.0000000000000000 0.0000000000000000 0.0000000000000000 0.0000000000000000 3.3644156511185770 3.7573535136788356 1.3935676235522698 1.1804711986937200 2241.0509486627425 2240.4230553888933 1.1804946630627844 
-126.45708017477888 -129.48984755171085 79.849037288397739 -126.45708017477888 -129.48984755171088 79.849037288397753 -155.90845028870234 -3.3297491621834977e-06 2.5083451346186684e-06 -3.3081671802808604e-05 -177.97308601229574 1.2948006544721838e-07 1.1510092212674293e-08 0.00013888205283763003 0.0044780531952500081 -1.0221798004443149e-11 -1.0496546366228673e-10 8.1937777909432396e-11 0.0042355952444881172 -122.76981557999994 -128.50411506799998 93.481940963999989 2295.0048277193882 0.0000000000000000 0.0000000000000000 0.0000000000000000 0.0000000000000000 3.3644476828325334 3.7574051529550014 1.3935867382507301 1.1804711986937197 2204.5849399005247 2204.5909811134252 1.1805026989812402 
-90.040885826351825 -120.35212806694688 96.198140731603459 -90.040885826351783 -120.35212806694696 96.198140731603431 -112.50518078112937 -1.1850517681853970e-05 2.0932617911041394e-05 -3.2714302254896126e-05 -2.7867635796018578e-19 9.5055528448462212e-08 9.3291718794574763e-09 0.00012034808830918565 0.0041132842923456373 2.1457741843853422e-10 -2.8828063472407276e-10 1.6182443726013818e-10 1.7379582804784991e-20 -87.333945182495114 -119.55317056945796 108.01171823852533 1853.2119812635015 0.0000000000000000 0.0000000000000000 0.0000000000000000 0.0000000000000000 3.3642083752905356 3.7569616998924715 1.3933842043524578 1.1804711986937202 2126.0526661421040 2131.1530859555210 1.1804170189107952 
-125.55992657181005 -119.73564799277601 95.102114255481666 -125.55992657181004 -119.73564799277599 95.102114255481652 -126.38334393913505 -1.5586398406667044e-06 1.2762483004374963e-05 -1.8098798472367274e-05 -120.88653985266056 1.2863198872725690e-07 9.1820340220039043e-09 0.00012159058555027968 0.0042449351886328568 -3.4749243763023842e-12 -1.9085035459139077e-10 1.1595160441624210e-10 0.0042609274457511221 -121.89681335200000 -118.94929134799999 107.03765745040002 1571.7251237143605 0.0000000000000000 0.0000000000000000 0.0000000000000000 0.0000000000000000 3.3643386447348123 3.7571571449609888 1.3934466613367023 1.1804711986937202 2143.0220456900388 2142.4293531111875 1.1804434058072657 
-45.688477563964703 -165.34289131088036 113.79440108951840 -45.688477563964710 -165.34289131088039 113.79440108951843 -35.867811226990511 3.8929060436558176e-05 -4.2375531020374049e-05 1.1826255186442952e-05 0.0000000000000000 5.3128802135482558e-08 2.0067179695715257e-08 0.00010040029934543782 0.0031429936321870230 -6.6351281370406828e-10 7.3786981545734512e-10 -1.4849562122066266e-10 0.0000000000000000 -44.175503749389662 -163.62432261291502 123.64986896362305 1288.7765825848380 0.0000000000000000 0.0000000000000000 0.0000000000000000 0.0000000000000000 3.3638545567811415 3.7561124035563784 1.3928823556057353 1.1807144676969061 1966.4264213932843 1993.2957132812307 1.1802046716906429 
-16.197299131533221 -145.17102419011988 127.76181193022609 -16.197299131533217 -145.17102419011988 127.76181193022605 -32.887431716399391 8.2002325616138580e-06 -2.9030609416323166e-05 6.5528518846831989e-06 -22.806530209254905 2.5250535773402302e-08 1.5252721530245594e-08 8.4566311997491525e-05 0.0031865668167728096 -1.2124630059629341e-10 4.6489213058451918e-10 -1.2415736355344318e-10 0.0032257879764750769 -15.478227839600008 -143.86476845600004 136.06298808800005 1207.7015194609139 0.0000000000000000 0.0000000000000000 0.0000000000000000 0.0000000000000000 3.3631450727524435 3.7546314314535874 1.3921102843889854 1.1804325656611745 1978.6232205603626 1976.4035233409193 1.1798774860161745 
-45.688477563964703 -165.34289131088036 131.39066144743330 -45.688477563964682 -165.34289131088030 131.39066144743325 -64.177246867937157 5.9687338597740020e-06 -2.2367407108275389e-05 1.0371103654599567e-05 0.0000000000000000 5.3128802135482531e-08 2.0067179695715254e-08 8.0452510388795417e-05 0.0035862751747775959 -7.8287153277925861e-11 4.3040239470625286e-10 -2.1049147993791551e-10 0.0000000000000000 -44.175503749389669 -163.62432261291511 139.28801968872074 2260.0113226803110 0.0000000000000000 0.0000000000000000 0.0000000000000000 0.0000000000000000 3.3641121561806782 3.7567093126902660 1.3932255509357254 1.1804830476967862 2042.3743460327375 2037.9514073524867 1.1803498271834549 
-6.3354640282466255 -163.13210962021947 121.41831637374887 -6.3354640282466237 -163.13210962021952 121.41831637374888 -96.607797701454786 2.5608542769903081e-05 -2.5292530568476348e-05 8.8760429295713860e-06 -108.53531969535426 1.5928055208114248e-08 1.9539534656942692e-08 9.1757539454562207e-05 0.0037690212215326755 -4.1160751746154390e-10 4.2727565668405983e-10 -1.1348941866976509e-10 0.0037933020329396442 -5.8818733370400009 -161.45872929999999 130.42539591680000 1840.5999298976626 0.0000000000000000 0.0000000000000000 0.0000000000000000 0.0000000000000000 3.3645207078824551 3.7575817782156453 1.3936916059682896 1.1804711986937220 2103.2124792839859 2099.1601534102369 1.1805471551777917 
-10.342117822032185 -107.64825999822916 180.56370945803104 -10.342117822032185 -107.64825999822916 180.56370945803107 -101.20442602429976 -6.6103213882814743e-06 6.5228121650339851e-06 1.0847252721886208e-05 -105.03587303003123 1.9715580945600664e-08 6.2971270420320025e-09 2.4708075802237769e-05 0.0041219161660544720 4.6283889184079517e-11 -1.0772643137767511e-10 -9.7416605183145668e-11 0.0041953077580834082 -9.7806680107999995 -107.10896956400003 182.98909712000000 1021.2952016557671 0.0000000000000000 0.0000000000000000 0.0000000000000000 0.0000000000000000 3.3643684510199425 3.7572517236294023 1.3935127741658260 1.1804711986937206 2106.6443628293387 2105.5461885939912 1.1804714163194434 
-18.342589226432683 -109.20841446349114 192.27135436199612 -18.342589226432686 -109.20841446349115 192.27135436199612 -112.29459666646976 -1.0145736634170744e-05 7.0438727945705282e-06 5.1592751174385591e-06 -118.80322014636886 2.7278496683713627e-08 6.6694816336365648e-09 1.1435844939455821e-05 0.0042245864484910514 1.0808545201219269e-10 -1.3111217442745419e-10 -8.5842058995834361e-11 0.0043568663153783797 -17.565766725200003 -108.63723447200002 193.39391677600000 1230.2822850381203 0.0000000000000000 0.0000000000000000 0.0000000000000000 0.0000000000000000 3.3643585593012295 3.7572298955607222 1.3935007539670565 1.1804711986937200 2131.2837190497598 2130.3019049617974 1.1804663230035428 
-45.688477563964703 -120.35212806694688 166.58318216326319 -45.688477563964653 -120.35212806694672 166.58318216326325 -107.10440203899117 5.6240361061806414e-07 1.6538237278643948e-05 1.7293599813335521e-05 0.0000000000000000 5.3128802135482545e-08 9.3291718794574746e-09 4.0556932461299766e-05 0.0041439739387872021 -5.6588922648238537e-12 -2.3561563548080147e-10 -1.0560960479371092e-10 0.0000000000000000 -44.175503749389591 -119.55317056945772 170.56432113891603 1872.3464537223574 0.0000000000000000 0.0000000000000000 0.0000000000000000 0.0000000000000000 3.3644195503329390 3.7573575918163491 1.3935676592072679 1.1804711986937204 2117.1490154007324 2120.6380185852577 1.1804946948414143 
-9.8808729887316069 -125.29714204722048 187.17493725303666 -9.8808729887316087 -125.29714204722049 187.17493725303666 -102.56145810597629 -4.3882283287446919e-06 -6.4207634502491291e-06 9.3190251097558375e-06 -101.85784698482826 1.9279561891405453e-08 1.0509405123926285e-08 1.7213336903409981e-05 0.0041448126011573569 -6.4708097309716432e-12 9.2685108915677847e-11 -8.9226892994802858e-11 0.0041804941176822041 -9.3318398883999993 -124.39710846400000 188.86462832000004 1016.3527334425750 0.0000000000000000 0.0000000000000000 0.0000000000000000 0.0000000000000000 3.3643544671028027 3.7572212991424334 1.3934962319695037 1.1804711986937220 2109.6358751955813 2109.0650105373384 1.1804644064610927 
-45.688477563964703 -165.34289131088036 96.198140731603459 -45.688477563964703 -165.34289131088039 96.198140731603431 -70.801028033484073 1.2960280822106025e-05 -6.4313331886353610e-05 -4.8206976256102508e-05 1.4593562145981124e-18 5.3128802135482545e-08 2.0067179695715254e-08 0.00012034808830918565 0.0034506387748720261 -2.1988167707060635e-10 1.0675039048863874e-09 3.0468274862410161e-10 -8.8329613916448285e-20 -44.175503749389662 -163.62432261291499 108.01171823852535 1450.3671205666894 0.0000000000000000 0.0000000000000000 0.0000000000000000 0.0000000000000000 3.3656770742069573 3.7602290265681648 1.3951942490822029 1.1809466134620383 2051.0589218682799 2073.8146748786316 1.1811832475924431 
-63.136324626653462 -162.61771190696314 71.433386553019915 -63.136324626653483 -162.61771190696311 71.433386553019915 -134.53146428069505 -2.1267467047557748e-05 -5.8929893842410147e-05 -1.5761608394324930e-05 -140.90049161361898 6.9622405285407751e-08 1.9416767527147272e-08 0.00014842235409417981 0.0040459573139531380 2.8832166031412555e-10 8.0656164821078886e-10 3.6528955404164826e-10 0.0045103383319343290 -61.153654769600031 -160.95484587600001 86.002782780800032 1645.6757988676138 0.0000000000000000 0.0000000000000000 0.0000000000000000 0.0000000000000000 3.3630581884704891 3.7546286218281235 1.3922022201638253 1.1801895790357608 2174.1199570864037 2173.0776805686619 1.1799161262561240 
-45.747254599983158 -169.81151793003809 68.365611950228612 -45.747254599983158 -169.81151793003806 68.365611950228626 -163.66389204577385 3.7062735371560421e-06 -6.3847334543163883e-05 -1.1184735577945110e-05 -128.51244695480796 5.3184365689240565e-08 2.1133713223875364e-08 0.00015190009988330647 0.0042452555262672016 9.9315579570850372e-12 8.7996638249619608e-10 2.6863233683916448e-10 0.0043528777394940665 -44.232698507600013 -168.00161050399998 83.276389748800028 1737.4139093181343 0.0000000000000000 0.0000000000000000 0.0000000000000000 0.0000000000000000 3.3643602099172565 3.7571870772750895 1.3934544618984621 1.1804711986937197 2213.4925492535122 2208.0218863066402 1.1804467691674208 
-45.688477563964703 -187.83827293284710 96.198140731603473 -45.688477563964675 -187.83827293284702 96.198140731603431 -173.17291808542814 -1.4636199356203858e-06 -3.1069411229517327e-05 -2.7069306448371119e-05 -1.0354436420602031e-19 5.3128802135482558e-08 2.5436169392989421e-08 0.00012034808830918564 0.0043291788152857447 7.4469989261623633e-11 5.1099816223227341e-10 4.4684275951855569e-11 5.9600827886418578e-21 -44.175503749389676 -185.65989863464350 108.01171823852533 1616.4576808433910 0.0000000000000000 0.0000000000000000 0.0000000000000000 0.0000000000000000 3.3639578565144923 3.7563665873389196 1.3930352938712436 1.1803891489214524 2236.1741389464005 2231.3836990648174 1.1802691126008091 
-90.040885826351825 -142.84750968891365 131.39066144743330 -90.040885826351783 -142.84750968891368 131.39066144743322 -101.45113283921562 -9.1279017416045576e-06 -6.7820409993450234e-06 5.8618502919899375e-06 0.0000000000000000 9.5055528448462199e-08 1.4698162020820860e-08 8.0452510388795404e-05 0.0039708397215588104 1.7621232020232672e-10 8.3265260010376972e-11 -8.4512152732066722e-11 0.0000000000000000 -87.333945182495100 -141.58874659118649 139.28801968872074 1877.7986991733408 0.0000000000000000 0.0000000000000000 0.0000000000000000 0.0000000000000000 3.3637477527393895 3.7558807000872605 1.3927586829934171 1.1801761737640168 2108.2028826381934 2109.2045004104652 1.1801517089090339 
-67.864681695158268 -165.34289131088036 131.39066144743330 -67.864681695158225 -165.34289131088028 131.39066144743330 -84.851226431040203 -2.1986194239063519e-05 -8.0124623600778353e-06 9.9549752469092659e-06 -8.7726317207270060e-21 7.4092161850281015e-08 2.0067179695715254e-08 8.0452510388795417e-05 0.0037772637616234426 3.6859402616300912e-10 1.8704480519300834e-10 -1.8057946933961186e-10 2.8727215784291061e-23 -65.754724465942374 -163.62432261291517 139.28801968872077 2018.1238718776010 0.0000000000000000 0.0000000000000000 0.0000000000000000 0.0000000000000000 3.3636433898726645 3.7556847360669119 1.3926671052590720 1.1803663999000054 2076.4780597008803 2079.5392155569716 1.1801132748349159 
-90.040885826351825 -165.34289131088036 113.79440108951840 -90.040885826351783 -165.34289131088036 113.79440108951846 -118.28079575531183 -1.5354732931852768e-05 -1.3289054095179783e-05 -9.4660299135211218e-06 0.0000000000000000 9.5055528448462225e-08 2.0067179695715254e-08 0.00010040029934543783 0.0040359904617512758 2.7756023280016546e-10 2.0899851033738353e-10 7.4399997834192003e-11 0.0000000000000000 -87.333945182495114 -163.62432261291505 123.64986896362312 1549.0027140339625 0.0000000000000000 0.0000000000000000 0.0000000000000000 0.0000000000000000 3.3647884059706716 3.7581317128863492 1.3939736102523710 1.1805235020893494 2139.7265475099916 2150.0038489978756 1.1806664274766758 
-90.040885826351825 -142.84750968891365 113.79440108951840 -90.040885826351783 -142.84750968891365 113.79440108951846 -81.340768653487828 -3.7035753309781477e-05 -1.8880889352014097e-05 6.3722741996538544e-06 0.0000000000000000 9.5055528448462212e-08 1.4698162020820863e-08 0.00010040029934543782 0.0037414721826707371 6.7530647306404688e-10 2.5566439023055161e-10 4.5532925052045990e-11 0.0000000000000000 -87.333945182495086 -141.58874659118649 123.64986896362313 1389.1126189879024 0.0000000000000000 0.0000000000000000 0.0000000000000000 0.0000000000000000 3.3636008746952477 3.7553905681432940 1.3924073773126440 1.1803889457160288 2062.0998425867310 2071.5506848080408 1.1800037559747425 
-46.738884702723404 -110.94029037103245 29.625331207566841 -46.738884702723411 -110.94029037103245 29.625331207566834 -221.60837765932001 1.2082907100572764e-05 1.7663950001597140e-05 -2.6667358689616600e-05 -223.88287505495876 5.4121760073577718e-08 7.0828363174513242e-09 0.00019581755330477793 0.0050554886745255512 7.6017389986679864e-11 -8.1661864020079521e-11 2.6700476056426463e-10 0.0048513158383303714 -45.197633928000002 -110.33371083599998 48.847122559999995 1069.0094105005942 0.0000000000000000 0.0000000000000000 0.0000000000000000 0.0000000000000000 3.3643745395025300 3.7572637548909857 1.3935186947278111 1.1804711986937193 2317.2425656536461 2317.2362078714714 1.1804739253124583 
-58.994813446592843 -99.197820992188824 26.676048995913245 -58.994813446592843 -99.197820992188838 26.676048995913227 -258.65849911222699 -1.2997299921350392e-05 2.0833259586834052e-05 -3.5325519746636366e-05 -261.59168412624717 6.5707399188319471e-08 4.2802426047927611e-09 0.00019916097161853941 0.0053848728462359378 3.1485416726129062e-10 -7.1221895216712573e-11 2.5338733495195762e-10 0.0057158394859758467 -57.123633070400032 -98.831257531200038 46.226036100800002 1475.5774262919704 0.0000000000000000 0.0000000000000000 0.0000000000000000 0.0000000000000000 3.3643695166079080 3.7572528160196059 1.3935127496423785 1.1804711986937197 2384.3821601717859 2384.3690664318351 1.1804714095828006 
-62.094258564281226 -106.09452592171310 39.092631897184219 -62.094258564281205 -106.09452592171307 39.092631897184219 -194.43070196797731 2.4392853355302769e-06 6.9615262487990399e-05 -7.1249477101871704e-05 -92.667345815237994 6.8637329930787416e-08 5.9262974527740645e-09 0.00018508506171599493 0.0049162712904521318 3.3231389410270052e-10 -3.7107184534139687e-10 8.5697850262824936e-10 0.0064110142585848441 -60.139641125599979 -105.58699381199996 57.260903223199996 1724.6135661994952 0.0000000000000000 0.0000000000000000 0.0000000000000000 0.0000000000000000 3.3643566111951504 3.7572257214653750 1.3934985334817045 1.1804711986937193 2260.0525215032580 2260.1630984260091 1.1804653940561920 
-20.233753501879011 -88.259030961619814 39.585670581361420 -20.233753501879015 -88.259030961619814 39.585670581361413 -204.42388181900048 -8.8986672849046849e-06 5.5039672390601050e-06 -5.1438489645507663e-05 -210.38101094251832 2.9066231754804051e-08 1.6694632343217108e-09 0.00018452613434050138 0.0049447424362053160 5.0167250478757277e-11 -3.1543423583866587e-10 2.1759464426682942e-11 0.0049476885613483285 -19.406020858399991 -88.116056368799974 57.699076624800000 1439.6451283969650 0.0000000000000000 0.0000000000000000 0.0000000000000000 0.0000000000000000 3.3643630952716492 3.7572390966686835 1.3935054270687603 1.1804711986937191 2293.3098963094021 2293.3928003777901 1.1804683124481767 
-60.693444421185148 -180.61914037679463 63.278287153418049 -60.693444421185163 -180.61914037679466 63.278287153418056 -222.26898971916825 -6.1335399772248443e-06 -1.1867243963628537e-05 -1.7077685680873899e-05 -236.93426326160213 6.7313130291957179e-08 2.3713174313044757e-08 0.00015766728446209299 0.0047182349809159222 1.1307895033877394e-10 2.9937925840416872e-11 2.9996236334147046e-10 0.0052550558737773142 -58.776536899199989 -178.58832514800000 78.755181813599989 1584.4809985467919 0.0000000000000000 0.0000000000000000 0.0000000000000000 0.0000000000000000 3.3648590991307561 3.7583224214860640 1.3940963884555726 1.1804711986937200 2325.2284819028714 2327.0153883226417 1.1807187799343271 
-76.814256473621725 -187.10622450432834 55.931300914198019 -76.814256473621739 -187.10622450432834 55.931300914198012 -234.84700081760252 -1.7000693069375529e-06 -1.1098912020487241e-05 -4.3416927343636384e-06 -236.75931001735367 8.2552279345726718e-08 2.5261466474191252e-08 0.00016599610707146439 0.0048674409507655962 4.7238571803554512e-12 4.3261322300925898e-11 8.8118318556781927e-11 0.0047212373505330337 -74.463376691600018 -184.94281327599995 72.225767276240006 1182.3928641350060 0.0000000000000000 0.0000000000000000 0.0000000000000000 0.0000000000000000 3.3643198608001632 3.7571004906373440 1.3934075671329238 1.1804711986937193 2346.9378995653747 2346.7583762613463 1.1804267836970423 
-71.956892858836753 -214.30787839368804 72.096683092226314 -71.956892858836767 -214.30787839368804 72.096683092226300 -227.74369762841235 1.9599721105141411e-06 2.2251127502608378e-06 -1.5880922329484039e-05 -228.00612871009886 7.7960561228884728e-08 3.1753718099380990e-08 0.00014767041595575847 0.0047716910998944076 -1.3464574374180816e-11 1.1928538237000169e-11 5.9101500998708411e-11 0.0047921802074216225 -69.736773305200003 -211.58846536000007 86.592267764799999 1391.6778601551057 0.0000000000000000 0.0000000000000000 0.0000000000000000 0.0000000000000000 3.3644561890760984 3.7574866233883766 1.3936626793125442 1.1804711986937197 2329.9966307686036 2329.7029924234548 1.1805350101885472 
-89.506396281729238 -209.90330006058178 76.277819937733682 -89.506396281729252 -209.90330006058181 76.277819937733710 -215.38183678426074 1.2140768810341077e-05 -5.8770272676929785e-06 -1.8308129061327633e-05 -235.94584140932832 9.4550273055382661e-08 3.0702464792753410e-08 0.00014293052043612420 0.0047188743909502709 -1.0986599346181258e-10 7.6747028203169165e-11 -7.4623954340453999e-11 0.0047825527713553969 -86.813844096400004 -207.27391660800001 90.308128229600001 1955.0875990986240 0.0000000000000000 0.0000000000000000 0.0000000000000000 0.0000000000000000 3.3647220148808228 3.7580235591166296 1.3939336705155687 1.1804711986937200 2319.8697616157187 2319.9763539162368 1.1806498249093527 
-76.722009396302667 -215.32555792326741 87.922605707584310 -76.722009396302667 -215.32555792326738 87.922605707584310 -204.12188333977534 -2.5844949931994750e-07 9.2107367419420048e-07 -6.1316880513964310e-06 -211.56242719295079 8.2465079320748202e-08 3.1996616245422160e-08 0.00012972954906942391 0.0046074543545859591 1.8226666503273912e-13 -7.5083314096585128e-12 5.8059752096263037e-11 0.0046738698979063385 -74.373612905599998 -212.58534351999998 100.65708370800000 988.41240310934302 0.0000000000000000 0.0000000000000000 0.0000000000000000 0.0000000000000000 3.3646973041637636 3.7580272106843480 1.3939646169527156 1.1804711986937200 2299.5330285046562 2299.7688576754163 1.1806630142118306 
-67.864681695158268 -187.83827293284710 96.198140731603473 -67.864681695158225 -187.83827293284702 96.198140731603431 -172.74690500857065 5.5229118821587846e-06 -2.5048205886377640e-05 -2.9226700181968870e-05 -6.8121431917693587e-19 7.4092161850280989e-08 2.5436169392989427e-08 0.00012034808830918564 0.0043926965117490032 -1.1421886442972029e-11 3.8815388579328325e-10 6.0366929790039542e-11 4.0739381264143656e-20 -65.754724465942374 -185.65989863464350 108.01171823852535 1808.0980320372519 0.0000000000000000 0.0000000000000000 0.0000000000000000 0.0000000000000000 3.3630992780647242 3.7543065393842605 1.3918189614444341 1.1801135894901700 2230.0104546202624 2228.4728994358206 1.1797533132006914 
-86.061163962997682 -211.01268573986059 97.338178411925782 -86.061163962997696 -211.01268573986061 97.338178411925796 -183.22928132184020 7.7132952520928624e-06 -6.3481296366011924e-06 -2.3552718180611173e-05 -178.11307617118061 9.1293456461194467e-08 3.0967247655055985e-08 0.00011905569829195885 0.0044855758104568374 -9.0295468829196098e-11 4.5848858719397985e-11 1.4158153119384533e-10 0.0044808645410880157 -83.461357431600007 -208.36062644399999 109.02489266960001 1287.0831768928649 0.0000000000000000 0.0000000000000000 0.0000000000000000 0.0000000000000000 3.3648275347838910 3.7582879749293028 1.3940948994138240 1.1804711986937189 2247.2329333292723 2249.9472292711221 1.1807180958138506 
-42.999425300512137 -131.06418436823253 48.649916494183337 -42.999425300512137 -131.06418436823247 48.649916494183337 -139.44479281458391 1.8311895507768577e-05 7.0818564236974545e-06 -3.0103153559699715e-05 -147.35741510763958 5.0586819733133837e-08 1.1885836093128432e-08 0.00017425056095987657 0.0043436369316985574 -9.6125001679616708e-11 5.2247690443760638e-11 4.1643134006412366e-10 0.0047315620060114144 -41.558840772800004 -130.04627243999997 65.754654395919971 2180.9238908936368 0.0000000000000000 0.0000000000000000 0.0000000000000000 0.0000000000000000 3.3644434159976746 3.7574127092246319 1.3935991088964850 1.1804711986937193 2185.9883259079243 2186.0337869432083 1.1805079456947509 
-23.709394764992552 -135.55481507587379 37.568069275354311 -23.709394764992549 -135.55481507587379 37.568069275354311 -185.05226840987103 1.0370782567634191e-05 4.7951455552517350e-06 -1.1884197446735677e-05 -186.75599940673965 3.2351786249940062e-08 1.2957621420284227e-08 0.00018681336379700039 0.0046773812786751493 -5.1787839937279634e-11 3.2366768071732317e-11 9.0097491061289815e-11 0.0046393170922206656 -22.788097858800000 -134.44511465599999 55.905993737599999 935.86986824075086 0.0000000000000000 0.0000000000000000 0.0000000000000000 0.0000000000000000 3.3643283038197178 3.7571627958353031 1.3934636933975955 1.1804711986937200 2251.7123038422801 2251.6660592396297 1.1804506593703954 
-11.621664609107309 -104.06855787892893 44.547373804771418 -11.621664609107311 -104.06855787892893 44.547373804771411 -179.71832744577520 -6.8157948821750892e-06 -6.4040072770287255e-06 -4.2771885273281277e-05 -172.49916813473544 2.0925147281580792e-08 5.4427451434690974e-09 0.00017890135914200300 0.0046562564374123200 9.1123450199623606e-12 -1.4407256153906187e-10 6.3028104609202306e-11 0.0046085425614946062 -11.025769398400001 -103.60243655599999 62.108642139439993 1284.9349949311236 0.0000000000000000 0.0000000000000000 0.0000000000000000 0.0000000000000000 3.3643495319065981 3.7572100393070533 1.3934898815004042 1.1804711986937191 2255.1179849535433 2255.2554919125969 1.1804617367548149 
-30.087243385697743 -142.00586836507208 53.507005657818958 -30.087243385697743 -142.00586836507208 53.507005657818965 -141.51011612643916 1.1598278567096712e-05 1.5006128821525187e-05 -3.3860926005324745e-05 -139.98093801246151 3.8380821298922292e-08 1.4497307132543824e-08 0.00016874438023961602 0.0042853926258158599 -7.9300801553365726e-11 3.2846066989372357e-11 3.8883426436648694e-10 0.0047693469207278983 -28.994254794799993 -140.76430841599998 70.071247290159988 2176.9829965296321 0.0000000000000000 0.0000000000000000 0.0000000000000000 0.0000000000000000 3.3644829715884930 3.7575028447652263 1.3936501094389202 1.1804711986937191 2177.8301143042813 2177.6483497137383 1.1805295078508282 
-106.55797331461555 -196.40745126323287 80.477441236463832 -106.55797331461555 -196.40745126323284 80.477441236463832 -194.58216120968410 -1.9994401626938247e-06 -1.2554511605158680e-06 -1.7488462770851464e-05 -208.99342167080368 1.1066926541847268e-07 2.7481393383155250e-08 0.00013816967025093163 0.0046232121222376625 2.0092607291634792e-11 -4.6920981879972160e-11 -6.7640168540438347e-12 0.0046063098775672136 -103.40639267600000 -194.05392295999994 94.040416199999996 2662.2783756828549 0.0000000000000000 0.0000000000000000 0.0000000000000000 0.0000000000000000 3.3646192413953058 3.7578432604415024 1.3938574144582867 1.1804711986937195 2274.8448345425863 2275.1128802045287 1.1806175436970361 
-85.081946831030336 -163.99234588547696 62.205634182986202 -85.081946831030322 -163.99234588547694 62.205634182986181 -200.69535721990192 -1.8335199527725359e-05 -2.1036904323369884e-05 -2.7890339817466916e-05 -200.01221493218208 9.0367800020807478e-08 1.9744830437318228e-08 0.00015888328460889056 0.0046883451245821441 1.3331077150398121e-10 1.6707730977545533e-10 5.2017924823195627e-10 0.0056400599521649730 -82.508500824799995 -162.30138233600007 77.801893530400037 2229.3857910936085 0.0000000000000000 0.0000000000000000 0.0000000000000000 0.0000000000000000 3.3648364715110350 3.7582782003244133 1.3940745980182703 1.1804711986937191 2284.7047597213827 2285.2684138660898 1.1807096017146315 
-29.056331672833711 -125.97597347243861 118.19346617899714 -29.056331672833718 -125.97597347243855 118.19346617899723 -8.4721643631550148 -8.9870378328884966e-06 2.1923045889074305e-06 3.2603585211133553e-05 -1.9459567942240827e-19 3.7406290176456025e-08 1.0671427519426402e-08 9.5413352106277203e-05 0.0028651023869768109 2.4032822970125458e-10 -8.6263330222792947e-11 -3.9000590402177061e-10 9.2766433349039037e-21 -27.991095225219734 -125.06206457489009 127.55940664489751 1124.7619503421174 0.0000000000000000 0.0000000000000000 0.0000000000000000 0.0000000000000000 3.3640124800831721 3.7564166932574912 1.3930286253110327 1.1806063825968725 1928.6019483490747 1929.5817666331695 1.1802662387366893 