# For a description of the Tecplot format see the Tecplot User's guide.
#
Variables=x,y,z,s_u,s_v,s_w,s_p,mono_f_vel_u,mono_f_vel_v,mono_f_vel_w,const,u_nu,v_nu,w_nu,p_nu,x_nu,y_nu,z_nu,const,u_ref,v_ref,w_ref,vol_ref,x_ref,y_ref,z_ref,const,I1,I2,I3,J,p1,p2,p3
Zone f=fepoint, n=1339, e=6475, et=brick, c=black
-58.7930 -70.4586 176.159 -58.793018360223634 -70.458564223364178 176.15890809390496 -71.285441947642411 -2.3719484635679953e-05 4.3358243877066014e-06 -4.6807794931110996e-06 -86.390499185770878 7.3153724397534425e-10 -3.7926689566702976e-11 8.0290561976781305e-08 2.7872428553601199e-05 2.4905129151171183e-11 -1.7303030081281137e-11 3.4238380270584057e-11 4.5854666971156912e-05 -58.668039002000000 -70.473359259200009 176.35421013599998 215.13583165143561 0.0000000000000000 0.0000000000000000 0.0000000000000000 0.0000000000000000 3.0217883095815243 3.0436886871058983 1.0219005468337257 1.0107141671501396 270.24797633705515 270.24804649008178 1.0108909818386587 
-65.099474806823665 -76.408038356101201 183.88681309677401 -65.099474806823665 -76.408038356101201 183.88681309677398 -59.953768884111874 -3.0092504787090494e-05 1.7218249845769728e-05 -2.4012739060442670e-05 -67.842988260245193 7.9810001316071855e-10 -1.7036982935536571e-11 5.6608367993149500e-08 2.2315987600697805e-05 2.9966423310906946e-11 -1.4502715586473449e-11 2.9751573602601610e-11 1.6471324904751160e-05 -64.963123215600007 -76.414687385200040 184.02450960799996 253.42820447565578 0.0000000000000000 0.0000000000000000 0.0000000000000000 0.0000000000000000 3.0220525236248239 3.0442247629726826 1.0221724327646995 1.0107141671501394 238.91470308957881 238.91478806867428 1.0110256470014707 
-69.808435719967704 -71.570874173671754 177.04799771865530 -69.808435719967719 -71.570874173671754 177.04799771865530 -73.011935540653369 2.5498883908248524e-05 7.2188724910094960e-06 -2.9867930636820871e-06 -77.088001159684026 8.4780138118190074e-10 -3.4015429362099781e-11 7.7565955214353721e-08 2.5286680976553282e-05 -2.6376498376180612e-11 -1.0117169437920198e-11 9.5448927260460294e-12 4.2454047663344670e-05 -69.663592608799988 -71.584146237200002 177.23667228800005 218.29881668600640 0.0000000000000000 0.0000000000000000 0.0000000000000000 0.0000000000000000 3.0223624426315392 3.0448531421041181 1.0224909206518895 1.0107141671501412 268.67653939657657 268.67609187862314 1.0111830896852039 
-57.287269371000789 -87.735635014687631 171.44036361256624 -57.287269371000782 -87.735635014687574 171.44036361256624 -55.454043441024339 -1.2824792499266660e-05 2.2642399270727149e-05 -9.7917273469369706e-06 0.0000000000000000 7.1563897516280239e-10 2.2717605574484878e-11 9.4750558066181170e-08 2.2868475943359650e-05 1.6589831404647502e-11 2.2852561817927681e-13 -3.2974750313350368e-11 0.0000000000000000 -57.165005282198301 -87.726774323660578 171.67083873969227 259.76550921814646 0.0000000000000000 0.0000000000000000 0.0000000000000000 0.0000000000000000 3.0206683998824677 3.0414049486965804 1.0207365703378717 1.0106188916067427 223.42911662161720 223.42900108687621 1.0103152719613635 
-89.077935922005224 -83.380820467017458 116.47270389141585 -89.077935922005224 -83.380820467017443 116.47270389141582 -92.486950546513754 0.00018433743547331390 3.2263497289898455e-05 8.0919322313060345e-05 0.0000000000000000 1.0511907143351264e-09 7.4239919767293827e-12 2.6319917689754391e-07 0.00011559564806136733 -4.6161528060270113e-11 -8.6113274524660439e-11 -2.5536752325030011e-10 0.0000000000000000 -88.898344731952406 -83.377922378373768 117.11292023788836 283.91631954144174 0.0000000000000000 0.0000000000000000 0.0000000000000000 0.0000000000000000 3.0198246474233774 3.0397074718312784 1.0198825170215182 1.0092826669331216 255.17861561519379 255.17946783927772 1.0098957538421152 
-97.790995963027115 -66.882008584946661 107.51314853044862 -97.790995963027129 -66.882008584946661 107.51314853044860 -76.252213308589816 2.2878490934567440e-05 4.0402511107778120e-05 -0.00013355442229857336 -88.327576513399990 1.1431567879804927e-09 -5.0476831048307253e-11 2.9065578099896072e-07 5.0492436653311996e-05 5.6692992236463359e-12 5.3509062377105632e-12 9.2178575405361252e-11 4.0727098387411904e-05 -97.595692787999965 -66.901700632800015 108.22015140479995 322.25788568967050 0.0000000000000000 0.0000000000000000 0.0000000000000000 0.0000000000000000 3.0210415767102323 3.0421959107910159 1.0211546231705937 1.0107141671501383 254.98645809323173 255.29885138167131 1.0105205807369582 
-79.825439299570732 -67.512621556156006 107.91144089557461 -79.825439299570704 -67.512621556156020 107.91144089557461 -100.04389284393203 -4.3152226886302168e-05 1.2894923355116529e-05 4.1764035930153806e-05 0.0000000000000000 9.5353366522110683e-10 -4.8269221952779156e-11 2.8943520224977703e-07 0.00014116999808907259 -4.8460800036880647e-10 2.8999474609861542e-10 2.5248347515337186e-10 0.0000000000000000 -79.662532843379708 -67.531450170133141 108.61547480962874 295.38956150422752 0.0000000000000000 0.0000000000000000 0.0000000000000000 0.0000000000000000 3.0216358997353212 3.0433633474764910 1.0217274625359745 1.0099942564667994 255.09760265545015 254.96615417638893 1.0108068763566973 
-94.667458480901587 -81.840292349680539 107.92235566354124 -94.667458480901587 -81.840292349680553 107.92235566354124 -59.234122364834306 -2.0226551337700557e-05 4.4691324834726022e-05 -6.1921387946204382e-05 0.0000000000000000 1.1101849960171162e-09 2.0151103008458904e-12 2.8940175522684802e-07 5.3350620311087722e-05 -2.8711685108463577e-11 -2.9768408920822896e-11 1.1360058431916150e-11 0.0000000000000000 -94.477787882002133 -81.839503548705352 108.62630821647583 293.80807890400462 0.0000000000000000 0.0000000000000000 0.0000000000000000 0.0000000000000000 3.0231914786315013 3.0465011377185083 1.0233096789594498 1.0109644103964937 214.84122239901993 215.04457898152128 1.0115879872199012 
-47.420365051506458 -125.93116799592380 138.15454238849659 -47.420365051506458 -125.93116799592374 138.15454238849665 -51.438268723079283 -3.5080513730921765e-05 7.3070825045496200e-05 -6.2454182735303054e-05 0.0000000000000000 2.2000652827338546e-08 -1.0308109776467156e-07 2.7490482002361773e-07 0.00012415282552703178 4.9935214488997055e-11 -1.1450833606119048e-10 -9.3221099835047627e-11 0.0000000000000000 -47.292355390977058 -125.96433165720771 138.67232254046354 244.31333887135355 0.0000000000000000 0.0000000000000000 0.0000000000000000 0.0000000000000000 3.0205691209249141 3.0412123964113289 1.0206432559058454 1.0104375918665496 210.32904737123656 210.32972611404125 1.0102671869530608 
-34.286749847693564 -140.50005453407545 138.73861795844527 -34.286749847693585 -140.50005453407542 138.73861795844536 -17.368680254048460 1.2019456825117603e-05 -1.1570202698881166e-06 1.7193662159607957e-05 0.0000000000000000 1.4717907464505558e-08 -2.1027110577380438e-08 1.9831932317152885e-07 2.1725796556856516e-05 7.6475500135822621e-12 3.5917645113173140e-11 -6.6846759300222441e-11 0.0000000000000000 -34.196989160350306 -140.43319657724166 139.21506628885933 210.16870282748488 0.0000000000000000 0.0000000000000000 0.0000000000000000 0.0000000000000000 3.0236660136936986 3.0474716158398207 1.0238057743347326 1.0120086130068029 171.71717845637656 171.71769592419147 1.0118319882890494 
-31.023132714169201 -127.70472228596752 142.28080591819241 -31.023132714169179 -127.70472228596748 142.28080591819250 -31.985301590448771 9.0298140733914606e-06 -6.1331769769769266e-06 4.3962809194502898e-05 0.0000000000000000 4.3842577832076124e-10 1.6298642990797416e-10 1.8411015667574304e-07 3.4166920398699799e-05 1.7672618580534248e-11 1.1779805667388454e-11 -1.4313652033361132e-10 0.0000000000000000 -30.948229910445860 -127.64113600963313 142.72864290474456 229.21992526850030 0.0000000000000000 0.0000000000000000 0.0000000000000000 0.0000000000000000 3.0236422397625553 3.0474040046791333 1.0237617623836743 1.0117926345658024 201.71073356375950 201.71077081522643 1.0118082831472419 
-48.527952124682955 -130.91036859255175 146.40568725158968 -48.527952124682969 -130.91036859255166 146.40568725158974 -19.829242752573105 3.0815981477942148e-05 2.5481993135123488e-05 -2.2213575066364955e-06 0.0000000000000000 2.2762090870671729e-08 -1.0701424597825050e-07 2.4406634843553929e-07 6.1701750519808327e-05 1.4548678089694181e-11 -2.8256399411185614e-10 7.6490485395492823e-11 0.0000000000000000 -48.406431667502837 -130.90513559487593 146.85896726379221 225.63426853136377 0.0000000000000000 0.0000000000000000 0.0000000000000000 0.0000000000000000 3.0267783643735888 3.0537325880304547 1.0269544796511452 1.0128365750304860 181.41764855318070 181.42009181488325 1.0133869871278793 
-53.123487810111612 -84.914195703946163 76.759485650917156 -53.123487810111584 -84.914195703946177 76.759485650917199 -55.020726170779426 1.2595378803526695e-05 8.8556022884768798e-05 -4.6159720487226788e-05 0.0000000000000000 7.3733244868580794e-10 -5.8159938109574981e-09 4.3873585348895148e-07 0.00018403278443256051 -1.5598019735941966e-10 2.4432990522458570e-10 5.5344823413340504e-10 0.0000000000000000 -53.009977022357148 -84.940192361847963 77.707205907375524 356.07450292316213 0.0000000000000000 0.0000000000000000 0.0000000000000000 0.0000000000000000 3.0264333330756581 3.0530205714648604 1.0265874397082195 1.0124716141576136 240.33285836368333 240.33565569405226 1.0132022393238858 
-40.402253866638858 -85.653493248632088 66.462120594890322 -40.402253866638837 -85.653493248632046 66.462120594890351 -107.28691833690630 -1.6481216446310670e-05 -1.7923413634483078e-05 -1.6175216664121923e-05 0.0000000000000000 1.1417332177216257e-09 -3.1542722705980068e-08 4.5858020068840523e-07 6.9913974337049823e-05 -4.2021679199312231e-12 -1.0201872821800188e-10 -2.5754298763163297e-10 0.0000000000000000 -40.313282635619565 -85.652866469445740 67.489144002613742 334.72004880612383 0.0000000000000000 0.0000000000000000 0.0000000000000000 0.0000000000000000 3.0200898633275988 3.0402699954339742 1.0201802360451211 1.0104737343143324 325.92002064444648 325.91101381211962 1.0100400688394695 
-43.017806333277875 -94.073030106775860 82.380296734004645 -43.017806333277882 -94.073030106775889 82.380296734004631 -40.163311128687845 8.3465678972983469e-05 3.4673999386836428e-05 -7.8046910377469161e-05 0.0000000000000000 2.5969810104035595e-09 -9.4617937591448038e-08 3.8898527928434850e-07 0.00017628329229222125 1.8730496029541981e-10 -5.4062658433301874e-10 -1.0956414180987133e-10 0.0000000000000000 -42.930125987095458 -94.071309017270835 83.274511392489799 283.94561953274422 0.0000000000000000 0.0000000000000000 0.0000000000000000 0.0000000000000000 3.0294091467213069 3.0589833383133400 1.0295744021693372 1.0132057128689720 223.32374605127856 223.32978640821815 1.0146782976277324 
-45.046526050928584 -98.993992735824804 67.006612148803626 -45.046526050928598 -98.993992735824733 67.006612148803654 -64.935710074677530 0.00012027522748385380 9.3737477437674472e-06 -5.6791171581358983e-05 0.0000000000000000 5.8643956010739906e-10 6.2232496933489756e-11 4.1478821777296554e-07 0.00014479530134538517 1.3887152413931232e-10 1.4988470645716555e-10 -5.4277206050741219e-10 0.0000000000000000 -44.946335306532468 -98.969717126470769 68.015559797458934 339.42980011114588 0.0000000000000000 0.0000000000000000 0.0000000000000000 0.0000000000000000 3.0230520144605024 3.0462397054109558 1.0231879312633145 1.0113444515315539 224.79926979539508 224.76260451912464 1.0115275545365343 
-35.747604887990008 -100.85464995731871 74.396287949517358 -35.747604887990029 -100.85464995731870 74.396287949517330 -79.465109066517755 9.5207778686866017e-06 1.5358625076160426e-05 -2.1212243014811741e-05 0.0000000000000000 1.5821983760357441e-08 5.2021123293069713e-09 4.3190762336471138e-07 0.00012659244469809220 5.6762697160091818e-11 7.9410148007780404e-11 4.2909735034010899e-10 0.0000000000000000 -35.672109309640206 -100.83293553867907 75.360366609178811 338.44965823895870 0.0000000000000000 0.0000000000000000 0.0000000000000000 0.0000000000000000 3.0199456015785282 3.0399857920493769 1.0200403207636841 1.0106902857533921 265.32022682927351 265.32467457036824 1.0099714577816672 
-49.083263123998350 -112.03420703373882 64.354425317371224 -49.083263123998343 -112.03420703373878 64.354425317371224 -60.026005110525070 8.1146380220878056e-05 -1.0699647877396307e-05 -2.9811832339244761e-05 -37.337233718727028 6.2904976713684668e-10 1.0799947047779312e-10 4.2291585611309301e-07 0.00012754760897113807 -1.0338327651009512e-10 -1.4179769073800306e-10 2.0674256962361473e-10 0.00026269116164911018 -48.975793059600008 -111.99207679200002 65.383142959360015 326.57209562220959 0.0000000000000000 0.0000000000000000 0.0000000000000000 0.0000000000000000 3.0211564644383748 3.0424093093838729 1.0212529574078226 1.0108720446425550 228.77781718670698 228.75374862530313 1.0105704733940348 
-25.304126759456931 -110.52193097730773 66.456608865720426 -25.304126759456942 -110.52193097730778 66.456608865720426 -110.66575571451531 -1.2027545198122100e-06 1.5692240139117997e-05 -6.1702702306725660e-05 0.0000000000000000 3.7806080835367522e-10 1.0268727534956669e-10 4.1647370752073698e-07 7.9769772472307801e-05 1.5886834352216575e-10 -2.0956480006643840e-10 -2.4798534743122639e-10 0.0000000000000000 -25.239536857883341 -110.48187134057846 67.469656361758609 349.35568362690350 0.0000000000000000 0.0000000000000000 0.0000000000000000 0.0000000000000000 3.0205069609960344 3.0411147232453044 1.0206079060305950 1.0104199810100745 322.37879662179517 322.38280692263942 1.0102512414493841 
-44.174470942826702 -111.30973986744621 75.506816806334214 -44.174470942826702 -111.30973986744627 75.506816806334214 -50.297768787152620 7.2728653765966899e-05 -4.8713341292014614e-05 -2.9117842932534705e-05 0.0000000000000000 5.7724030763650624e-10 1.0545164741415647e-10 3.8873930940930279e-07 9.5025134037790394e-05 -2.2533657187152345e-10 1.6253301743631995e-10 1.0817820707042501e-10 0.0000000000000000 -44.075852747763513 -111.26860156453857 76.452402029906395 268.59635586333832 0.0000000000000000 0.0000000000000000 0.0000000000000000 0.0000000000000000 3.0239297022037257 3.0479980250811036 1.0240685368661457 1.0120799899708997 227.55650085608434 227.56774446522311 1.0119618625360021 
-58.388383388042506 -106.55337777752375 104.64034867545608 -58.388383388042492 -106.55337777752371 104.64034867545612 -142.81191405712497 8.1300304841591525e-06 -3.3392045080530769e-07 -2.8487120184997507e-05 0.0000000000000000 -1.0195812170275915e-08 -7.8861888012836241e-08 3.1176052201967421e-07 0.00027583744338760942 -2.1588817326965076e-11 6.6770392847812099e-11 -1.2211352822227077e-10 0.0000000000000000 -58.254647241440821 -106.62760994408018 105.33920711112118 241.62621693813244 0.0000000000000000 0.0000000000000000 0.0000000000000000 0.0000000000000000 3.0031925067011733 3.0063228429225703 1.0031304546174546 1.0043566775342696 314.23118205829331 314.22719271399382 1.0015720537331883 
-64.531191517989015 -90.073827826015659 95.959282263626889 -64.531191517989029 -90.073827826015702 95.959282263626861 -83.858056171537243 -7.1171680333153190e-05 -0.00017572910257735751 0.00010293827914170530 0.0000000000000000 8.7690588315403797e-09 -8.8980659120221492e-08 3.5342247193756294e-07 0.00027410726279282076 2.3946279997653705e-10 -6.3264699960703426e-10 2.9418629994499585e-10 0.0000000000000000 -64.370648572599308 -90.090304358695661 96.688480747766732 239.98138923263960 0.0000000000000000 0.0000000000000000 0.0000000000000000 0.0000000000000000 3.0209640939948481 3.0419003792970951 1.0209361540934365 1.0098416977376965 266.07794059366574 266.07370750513451 1.0104083568265347 
-76.047534313939025 -99.665011516636895 100.60237159613446 -76.047534313939025 -99.665011516636838 100.60237159613450 -116.78157156760184 5.2041951649201830e-05 -1.0674619388805183e-05 8.7412136676788766e-05 0.0000000000000000 -3.8283245973874313e-08 -5.3558473002455533e-08 3.0197369337327233e-07 0.00012702329644751124 -1.1295174846836459e-10 -2.1675819231250321e-11 -2.6260071056445612e-10 0.0000000000000000 -75.913673002404863 -99.702254402691466 101.32606574872912 288.13617662859207 0.0000000000000000 0.0000000000000000 0.0000000000000000 0.0000000000000000 3.0105317022982341 3.0209884611826809 1.0104567830353242 1.0070830885444821 301.92952908402907 301.93418250216013 1.0052198393634517 
-55.309971795774565 -93.542898013011722 102.65120914617486 -55.309971795774565 -93.542898013011779 102.65120914617486 -136.38939540825837 7.9773599781377050e-06 -4.7072495483202833e-05 7.7112412372064233e-05 0.0000000000000000 -8.1088196054311095e-09 -6.0924184347929824e-08 2.7154733828623138e-07 0.00023425228414735368 5.3173723233212206e-11 -2.6501814316776715e-11 1.9117808923059630e-10 0.0000000000000000 -55.164710769962618 -93.586508083202432 103.32606452766413 222.68531933077850 0.0000000000000000 0.0000000000000000 0.0000000000000000 0.0000000000000000 3.0092399234191300 3.0184025501954461 1.0091625741042707 1.0056352378386666 319.78367097583691 319.78574977135213 1.0045776250070271 
-45.864443491228243 -176.02555233280350 155.29835379740175 -45.864443491228251 -176.02555233280336 155.29835379740180 -11.986433295581790 -1.0499689783445098e-05 -1.3927236365768039e-05 6.5095725861145559e-06 0.0000000000000000 5.9507527724877995e-10 3.3259159315512932e-10 1.4421783567364344e-07 1.0126290130361877e-05 7.5283318677179861e-12 2.6508567709604515e-11 1.9120727228446811e-12 0.0000000000000000 -45.762777822239421 -175.89580528354742 155.64915507299250 248.91339099022119 0.0000000000000000 0.0000000000000000 0.0000000000000000 0.0000000000000000 3.0239260068780429 3.0479918345564649 1.0240660582818462 1.0117868194253525 152.70674931842819 155.38974395508779 1.0119609439495536 
-51.547409032202971 -185.70581265613936 167.89682446014666 -51.547409032202957 -185.70581265613939 167.89682446014669 -12.264916325012521 3.3057421023085237e-06 2.8141560736444708e-06 3.3948787668586891e-06 -15.073309938161431 6.5505624188832979e-10 3.6656264135181966e-10 1.0560977448115239e-07 7.2090312319478149e-06 -1.6444854637512254e-11 3.3438809903715359e-12 3.1039753207781877e-12 7.9577212700602727e-06 -51.435495451599998 -185.56281141599996 168.15371392000000 294.81703600272857 0.0000000000000000 0.0000000000000000 0.0000000000000000 0.0000000000000000 3.0211969583074487 3.0424985776453055 1.0213017705225502 1.0108399963087524 146.01499997094223 144.86113998565764 1.0105950059827362 
-42.769331993578383 -171.30062951765871 165.99557031614108 -42.769331993578369 -171.30062951765871 165.99557031614120 -9.5378256304764761 1.0514728915159851e-05 -7.8503538919563205e-06 3.1286321949565375e-06 0.0000000000000000 1.4481155107934331e-09 -1.5611532278109323e-08 1.1609247966719329e-07 1.4312001278106665e-05 -4.1226498718934383e-12 -2.3877914973205046e-11 1.6856992529163046e-12 0.0000000000000000 -42.672974891599750 -171.18173466392949 166.26923354793541 271.88244999766295 0.0000000000000000 0.0000000000000000 0.0000000000000000 0.0000000000000000 3.0225252103337961 3.0451720945528824 1.0226470740271492 1.0112874326694834 142.27228918709204 142.49814620382389 1.0112601393923137 
-59.509005396049218 -178.15003928914444 157.41559719211068 -59.509005396049204 -178.15003928914444 157.41559719211077 -14.870729387666053 1.5892224663982685e-06 4.7861329567964434e-06 2.7279753051238515e-07 0.0000000000000000 7.3909109041259136e-10 3.4004371540774514e-10 1.3772953422197529e-07 1.1057231978642726e-05 2.3587325264445910e-11 -2.9742991889080166e-11 -3.3846714153753613e-11 0.0000000000000000 -59.382734921100123 -178.01738339707751 157.75061606229067 243.94852352315442 0.0000000000000000 0.0000000000000000 0.0000000000000000 0.0000000000000000 3.0224952702671235 3.0451115299986871 1.0226164460041085 1.0112103300704613 146.68242140433529 145.28107490787886 1.0112449242773278 
-30.756282721028299 -102.74055714661193 94.518346008912516 -30.756282721028317 -102.74055714661198 94.518346008912488 -29.268575601719760 -9.6404386842403492e-06 -4.7896924865062599e-06 -0.00014044119213364175 0.0000000000000000 4.2565534298438754e-09 1.9019642889453882e-08 3.3874407496479555e-07 0.00011645827227047110 5.9356711970490483e-12 2.7430246618989843e-10 -4.8920675254209054e-10 0.0000000000000000 -30.660097366607719 -102.72526557899965 95.328291536857705 204.58703120518373 0.0000000000000000 0.0000000000000000 0.0000000000000000 0.0000000000000000 3.0288156669012012 3.0577687338174400 1.0289528615934282 1.0128073880675892 181.21838288802394 181.21872179409809 1.0143742040714090 
-18.857185887128260 -110.94659221326185 92.535386186641063 -18.857185887128256 -110.94659221326178 92.535386186641063 -50.398677371244190 8.2567659415487963e-06 7.4004908565953240e-06 -1.3663327489167301e-05 0.0000000000000000 3.1001259545582194e-10 1.0418210738549760e-10 3.3655518261177514e-07 7.1535733221261279e-05 1.2333609551843781e-10 6.0452479900606461e-11 -5.1933457519822089e-11 0.0000000000000000 -18.804221549666405 -110.90595113131390 93.354036648627854 267.24800799435923 0.0000000000000000 0.0000000000000000 0.0000000000000000 0.0000000000000000 3.0221833261569500 3.0444844997678895 1.0223013358524147 1.0113183975953994 212.31820780115257 212.31825447051807 1.0110895258256745 
-33.904033004550548 -104.74529472167291 84.113927302164640 -33.904033004550563 -104.74529472167295 84.113927302164640 -61.347337212777617 -6.0087097877782299e-06 -6.6413148041680439e-05 -7.9563669481268776e-06 0.0000000000000000 1.2319506913705204e-08 -1.0364795143762150e-10 3.9059002632831568e-07 6.3779019297295926e-05 4.0692406035432983e-11 1.0110439642961605e-10 -1.4108558647305106e-11 0.0000000000000000 -33.815892125380543 -104.71065599625929 85.007910193808286 270.69679205096202 0.0000000000000000 0.0000000000000000 0.0000000000000000 0.0000000000000000 3.0221558601933780 3.0444126186568736 1.0222568843275857 1.0113380062032700 246.01046283018945 246.00851030395299 1.0110662799781922 
-18.974359354940503 -100.40588991936363 94.594764605298721 -18.974359354940500 -100.40588991936367 94.594764605298693 -41.118923191858670 3.8523668885680842e-05 -2.7916105151090744e-05 5.4534701812986893e-05 0.0000000000000000 3.1124910634949821e-10 6.7181510354785701e-11 3.3024421486338440e-07 2.6131512006110995e-05 -4.0892542170028604e-11 7.7656898065302070e-11 7.1867152704227572e-11 0.0000000000000000 -18.921183722278450 -100.37968114352928 95.398064000337470 185.31956687594098 0.0000000000000000 0.0000000000000000 0.0000000000000000 0.0000000000000000 3.0209461999991527 3.0419961732958729 1.0210501461154453 1.0112202473768181 204.84576301097056 204.84586511557333 1.0104721949109039 
-31.197816602385529 -118.01997965187481 172.99230855310347 -31.197816602385508 -118.01997965187488 172.99230855310350 -30.010425678622564 1.3938804683397998e-05 4.2725136489160247e-05 -2.6606092831875812e-05 0.0000000000000000 5.3369439683241396e-09 -2.1501302082718752e-09 8.8652686478257042e-08 4.6842430836664843e-05 3.4851002942939632e-11 3.5408336170209316e-11 -6.7016506437705120e-11 0.0000000000000000 -31.124431206993112 -117.97934695114738 173.21200361760444 258.17126679857051 0.0000000000000000 0.0000000000000000 0.0000000000000000 0.0000000000000000 3.0228846733359025 3.0458798882545564 1.0229953575043922 1.0115885426625810 189.27047137821958 189.27044676206913 1.0114320528568541 
-30.719360030961784 -133.19554529306217 164.52321072722287 -30.719360030961774 -133.19554529306208 164.52321072722290 -21.100298040593000 4.1569367680986882e-06 2.2271008588658675e-05 -7.9347243216655486e-06 0.0000000000000000 8.2749857952808057e-09 -1.2648280267787359e-08 1.1781255310625792e-07 1.8802766591318504e-05 -9.7250930818272954e-12 -2.1084953531800878e-11 5.0009314837454314e-11 0.0000000000000000 -30.642131568542830 -133.13454878399213 164.80820313575899 262.24283076768535 0.0000000000000000 0.0000000000000000 0.0000000000000000 0.0000000000000000 3.0243577120130469 3.0488502613208799 1.0244927545611200 1.0119845838727335 180.52076882294207 180.52069804161576 1.0121721247200599 
-42.772659490514862 -120.12830936408844 163.39398471227403 -42.772659490514876 -120.12830936408849 163.39398471227412 -14.834643254376632 4.7998923176172507e-05 7.6584098195233812e-06 -8.7031229102588084e-06 0.0000000000000000 5.7300435802831439e-09 -3.7886622737689629e-08 1.4455633049371356e-07 2.7674317742210431e-05 -3.4662832822789647e-11 -6.7348515601855884e-11 7.8461946742735028e-11 0.0000000000000000 -42.676694985445003 -120.10595080876966 163.70375490782192 268.28772502602959 0.0000000000000000 0.0000000000000000 0.0000000000000000 0.0000000000000000 3.0267340210754936 3.0536311029106953 1.0268973430272901 1.0132616610211351 184.92105203492662 184.92113524547224 1.0133584880494479 
-23.809217507476067 -114.27917149972879 161.50826026749846 -23.809217507476081 -114.27917149972880 161.50826026749840 -42.016418126373026 1.4054460882363546e-06 -9.0031343986018905e-06 1.8185214379619067e-05 0.0000000000000000 3.6228187463849260e-10 1.1587597548157191e-10 1.2518753100820845e-07 2.3718460667662666e-05 1.6233143737675961e-11 6.0315454536920587e-12 1.2896984010834778e-11 0.0000000000000000 -23.747323328369049 -114.23396745764113 161.81277151251504 321.01516800445251 0.0000000000000000 0.0000000000000000 0.0000000000000000 0.0000000000000000 3.0217721930010226 3.0436369622328390 1.0218648408237241 1.0111557190056646 211.76448967667423 211.76446385158388 1.0108736163864653 
-6.4941183983596478 -105.02007927763097 108.63284305001893 -6.4941183983596469 -105.02007927763094 108.63284305001891 -11.911840244803466 4.0579729855687874e-06 7.6966785721448970e-07 -4.0756168891667213e-05 -0.59961821125435599 1.7952196326720407e-10 8.3369228187635271e-11 2.8722446265838647e-07 6.3075068585087198e-06 -2.2187855848237350e-11 5.5634800685904986e-11 -4.7955671523017859e-11 -9.3699634038210134e-06 -6.4634479885999987 -104.98755276399999 109.33149947120000 327.67017865987640 0.0000000000000000 0.0000000000000000 0.0000000000000000 0.0000000000000000 3.0224711246215343 3.0450725328476911 1.0226016677320131 1.0113246861886576 138.30820189150066 138.30820958408418 1.0112371529894271 
-11.847161817269367 -97.138615770944369 100.67974272610167 -11.847161817269367 -97.138615770944384 100.67974272610168 -35.176349224839683 3.3363972828412288e-05 -6.6943290900532598e-05 -7.3618567533782135e-05 -31.917047657576752 2.3602299975555852e-10 5.5712962021559065e-11 3.1159677393866042e-07 -1.4797263395214033e-06 -2.4952492296865027e-11 3.3814263057882380e-11 1.6604681213894899e-12 -3.6569218458317281e-05 -11.806838433999999 -97.116880539599975 101.43768333439998 212.90238721710071 0.0000000000000000 0.0000000000000000 0.0000000000000000 0.0000000000000000 3.0192432904183759 3.0385619277138187 1.0193187541073334 1.0107141671501390 175.18758160058169 175.18757222675910 1.0096151357334013 
-15.897231384745494 -110.39999547457043 102.35195108512077 -15.897231384745494 -110.39999547457045 102.35195108512079 -37.344318853620209 -2.4150284009857747e-05 5.9832601034240024e-06 -9.4825375423110975e-05 0.0000000000000000 2.7877135322373898e-10 1.0225875701763698e-10 3.0647228621560885e-07 3.2560508789225547e-05 4.0954511103479071e-11 7.9796583972897599e-11 1.2391561117030902e-10 0.0000000000000000 -15.849604639409371 -110.36010279166017 103.09742667861765 236.22178992679409 0.0000000000000000 0.0000000000000000 0.0000000000000000 0.0000000000000000 3.0219620480679037 3.0440419729163164 1.0220801164843183 1.0112412490865499 211.30816043468801 211.30817204447123 1.0109797228697663 
-23.811476907802469 -99.559262034879353 101.53024617166432 -23.811476907802458 -99.559262034879353 101.53024617166426 -24.876048581791760 1.4900897131777125e-05 -1.5489792492669568e-05 -2.3149069983311811e-05 0.0000000000000000 3.6230459951602784e-10 6.4211941319669563e-11 3.0899040237564179e-07 5.7549106771200341e-05 2.9391819690893415e-10 1.0720654224863344e-10 -1.4499682387476498e-11 0.0000000000000000 -23.749578654390465 -99.534212460059550 102.28184693721489 211.57004919854941 0.0000000000000000 0.0000000000000000 0.0000000000000000 0.0000000000000000 3.0265416786048349 3.0532471159827761 1.0267055067188584 1.0122586983575663 185.91857883792306 185.91848071908873 1.0132633042902022 
-54.222101021543295 -108.26918118948156 113.17935852529256 -54.222101021543274 -108.26918118948153 113.17935852529259 -98.854371590557321 7.3860644524656276e-05 0.00013814157955216249 -0.00015112665950833706 0.0000000000000000 -2.0890149424479108e-08 -6.6835357690836883e-08 3.0277887491495430e-07 0.00042574390679350066 4.7967086173256171e-10 5.2645923562706770e-10 -4.3701212121470595e-10 0.0000000000000000 -54.087034329299712 -108.37170302860723 113.84396407125838 191.01171882188567 0.0000000000000000 0.0000000000000000 0.0000000000000000 0.0000000000000000 3.0151651916414863 3.0303439590198504 1.0151787256364482 1.0069414603052969 225.79013326908753 225.79174847087171 1.0075546718963329 
-41.846981797214831 -107.68901973240793 110.31222640491127 -41.846981797214838 -107.68901973240786 110.31222640491124 -113.48765824976896 -6.6991799644707569e-05 1.6409634745639362e-05 1.8583783541581293e-05 0.0000000000000000 3.7129902677935335e-09 -9.8560975041075837e-08 2.8696830321840572e-07 0.00022268239305362218 7.6095575547817291e-11 -4.6782462106698245e-11 5.3738402338993196e-11 0.0000000000000000 -41.690910404717421 -107.74885629568415 110.97670241767709 270.34727434602189 0.0000000000000000 0.0000000000000000 0.0000000000000000 0.0000000000000000 3.0069056758505996 3.0137353501599287 1.0068294681039693 1.0064053989654203 313.89841997037479 313.89791628045532 1.0034191406033728 