# For a description of the Tecplot format see the Tecplot User's guide.
#
Variables=x,y,z,s_u,s_v,s_w,s_p,mono_f_vel_u,mono_f_vel_v,mono_f_vel_w,const,u_nu,v_nu,w_nu,p_nu,x_nu,y_nu,z_nu,const,u_ref,v_ref,w_ref,vol_ref,x_ref,y_ref,z_ref,const,I1,I2,I3,J,p1,p2,p3
Zone f=fepoint, n=1339, e=6475, et=brick, c=black
-58.7461 -70.4641 176.232 -58.746096314574586 -70.464117339207164 176.23249214701056 -37.230372553054785 -2.2960038898064568e-09 -1.3469015666319758e-07 3.5944115480009763e-07 -37.385585866757765 3.9877663671195045e-11 -2.0688450952377480e-12 4.3868002563840491e-09 1.7670675614542568e-05 1.0159187920243412e-13 -1.6064202655141565e-13 2.6675841749214219e-13 1.7736179020151236e-05 -58.668039002000000 -70.473359259200009 176.35421013599998 215.13583165143561 0.0000000000000000 0.0000000000000000 0.0000000000000000 0.0000000000000000 3.0135671560854860 3.0271775147391411 1.0136103987451315 1.0066755899549500 117.25305139944315 117.25168073679855 1.0067822632216041 
-65.048283188634457 -76.410533978905960 183.93869308372052 -65.048283188634485 -76.410533978905960 183.93869308372047 -38.490435700604500 -5.5621448813533226e-07 -1.2002199764669326e-06 1.2994507872791127e-06 -38.463463536240127 4.3509217062531753e-11 -9.2362228976128335e-13 3.0928886118886112e-09 1.7447522982922160e-05 1.7751403082349454e-13 -2.4546972314310277e-13 2.6181919560364090e-13 1.7525828369705823e-05 -64.963123215600007 -76.414687385200040 184.02450960799996 253.42820447565578 0.0000000000000000 0.0000000000000000 0.0000000000000000 0.0000000000000000 3.0138485002257704 3.0277426568791816 1.0138942009660796 1.0066755899549502 120.52214534663784 120.52283513293672 1.0069232677948234 
-69.754056059432088 -71.575855662535034 177.11908473536755 -69.754056059432074 -71.575855662535020 177.11908473536755 -37.531296479780515 -5.3718956647768611e-07 -2.3616471808439673e-07 1.7952509027793943e-07 -38.017729047847858 4.6221200478147046e-11 -1.8525875278285753e-12 4.2379456610674993e-09 1.7778038728656344e-05 7.2678441759890054e-14 -1.2394948933180845e-13 2.3376157772894640e-13 1.7817143360945642e-05 -69.663592608799988 -71.584146237200002 177.23667228800005 218.29881668600640 0.0000000000000000 0.0000000000000000 0.0000000000000000 0.0000000000000000 3.0140128834607691 3.0280721472968399 1.0140593091008887 1.0066755899549515 119.47052370605229 119.46568459835611 1.0070053160020689 
-57.241366741658069 -87.732309274603693 171.52719984741586 -57.241366741658098 -87.732309274603708 171.52719984741572 -35.876213431237005 -7.8586460222309121e-07 1.0405637062910601e-06 2.9608181335869029e-06 0.0000000000000000 3.9009760699482143e-11 1.2349704592296007e-12 5.1768450637368346e-09 1.7685868929176192e-05 1.1931163730298666e-13 -8.8762808021011283e-14 3.7239907384853604e-13 0.0000000000000000 -57.165005282198301 -87.726774323660578 171.67083873969227 259.76550921814646 0.0000000000000000 0.0000000000000000 0.0000000000000000 0.0000000000000000 3.0122198668669671 3.0244712360437238 1.0122513877756492 1.0062333124562206 109.81903614197606 109.81905977344663 1.0061069296553884 
-89.010510499618690 -83.379732708789618 116.71391854095344 -89.010510499618690 -83.379732708789575 116.71391854095342 -33.299459705835339 -4.1978930070933898e-07 1.8493487315904909e-06 -8.3180296102194765e-07 0.0000000000000000 5.7304751222009280e-11 4.0671632728361823e-13 1.4380330592977941e-08 2.1092001052788493e-05 -4.0618044811206400e-13 1.2738955383946662e-13 4.8280034459660968e-13 0.0000000000000000 -88.898344731952406 -83.377922378373768 117.11292023788836 283.91631954144174 0.0000000000000000 0.0000000000000000 0.0000000000000000 0.0000000000000000 3.0122553684250679 3.0245364497352885 1.0122810911665356 1.0062529374926552 105.31947638295364 105.30870769955452 1.0061217457714475 
-97.717671658723759 -66.889399727768392 107.77952637521686 -97.717671658723745 -66.889399727768378 107.77952637521686 -36.406981366937657 -6.5396417755358839e-08 5.1945675338971244e-07 -3.5256755272908544e-06 -36.932033240306673 6.2321391103292724e-11 -2.7539914793095481e-12 1.5880476822438542e-08 2.1539746551714367e-05 7.6570821809937286e-15 -1.0760027692109819e-13 8.8042916712829337e-13 2.1522796804110680e-05 -97.595692787999965 -66.901700632800015 108.22015140479995 322.25788568967050 0.0000000000000000 0.0000000000000000 0.0000000000000000 0.0000000000000000 3.0138273829168258 3.0277019248929351 1.0138745885553122 1.0066755899549500 116.73365532419265 116.73028860484951 1.0069135272115677 
-79.764277966350875 -67.519688620794312 108.17670012361036 -79.764277966350861 -67.519688620794327 108.17670012361033 -35.730971699257729 -1.0538298050943508e-06 8.6059840603044756e-07 -1.6603554234389585e-06 0.0000000000000000 5.1976610515591659e-11 -2.6245811080016779e-12 1.5813779619122670e-08 2.1490278290849172e-05 1.1090246292916748e-13 2.2138692768742544e-13 8.9436128567583620e-13 0.0000000000000000 -79.662532843379708 -67.531450170133141 108.61547480962874 295.38956150422752 0.0000000000000000 0.0000000000000000 0.0000000000000000 0.0000000000000000 3.0127473392117561 3.0255303304407377 1.0127830189523015 1.0063962878939694 111.56501534029165 111.56122849421814 1.0063711185945790 
-94.596248861758582 -81.839996283943293 108.18758423710517 -94.596248861758625 -81.839996283943279 108.18758423710511 -35.514429434834703 -1.4521631572481547e-06 1.0948657416650736e-06 -2.6032336377554270e-06 0.0000000000000000 6.0520553846199463e-11 1.1420031587050516e-13 1.5811961406875241e-08 2.1800217508294661e-05 2.2689074206272912e-13 4.2020742135872097e-13 1.3144341981598574e-12 0.0000000000000000 -94.477787882002133 -81.839503548705352 108.62630821647583 293.80807890400462 0.0000000000000000 0.0000000000000000 0.0000000000000000 0.0000000000000000 3.0127022544189641 3.0254376203025335 1.0127353894658055 1.0063771407099487 110.53152876326111 110.53138059481655 1.0063474405727968 
-47.369346359000360 -125.99832190863501 138.38869105556984 -47.369346359000332 -125.99832190863492 138.38869105556984 -22.250504016535132 -1.6981284479538038e-07 9.7100423405588322e-07 3.4714125498448633e-06 0.0000000000000000 4.5818457435554678e-09 -3.5587516544492532e-09 2.4651383516817110e-08 1.9345716099393452e-05 1.0488109837893931e-13 -1.9258262417335031e-13 1.3616504717487602e-12 0.0000000000000000 -47.292355390977058 -125.96433165720771 138.67232254046354 244.31333887135355 0.0000000000000000 0.0000000000000000 0.0000000000000000 0.0000000000000000 3.0149547590255668 3.0299717874778240 1.0150171067218663 1.0075371593039255 96.516886834973917 96.516596079756667 1.0074805652980272 
-34.251861108111264 -140.48541745438908 138.92342510602970 -34.251861108111264 -140.48541745438899 138.92342510602973 -22.430120516721882 1.5523478792302027e-06 -5.4692495476628890e-07 1.7967321920558360e-06 0.0000000000000000 1.9747616450107882e-09 -9.7339364227222913e-10 1.5062237330405148e-08 1.8122838300786251e-05 -1.3799342339552148e-13 -4.7280685476678871e-13 1.6128889009640471e-12 0.0000000000000000 -34.196989160350306 -140.43319657724166 139.21506628885933 210.16870282748488 0.0000000000000000 0.0000000000000000 0.0000000000000000 0.0000000000000000 3.0146216798915759 3.0293000614826173 1.0146784441249890 1.0073261118348564 95.727969260260863 95.728730967517720 1.0073125195150583 
-30.995011328161919 -127.68085604039521 142.44953769512435 -30.995011328161915 -127.68085604039518 142.44953769512441 -23.886391047088704 1.0703414304692727e-06 4.9471585277860339e-07 3.1422256825764990e-06 0.0000000000000000 2.3899979217922862e-11 8.8781620943834128e-12 1.0059164834430590e-08 1.8147055224008523e-05 2.6541392409089546e-13 -2.7381150666373897e-13 1.6479841538106171e-12 0.0000000000000000 -30.948229910445860 -127.64113600963313 142.72864290474456 229.21992526850030 0.0000000000000000 0.0000000000000000 0.0000000000000000 0.0000000000000000 3.0141651000064189 3.0283810247785019 1.0142159770181576 1.0071361714867684 96.578219565610212 96.578332231367639 1.0070828681267512 
-48.483605968930860 -130.94404677280968 146.61122849391609 -48.483605968930846 -130.94404677280966 146.61122849391617 -23.240739129750413 8.3964920979393898e-07 2.6551223405148062e-06 -1.0674852696334703e-07 0.0000000000000000 4.6849791793663984e-09 -3.7845392424744266e-09 2.1773988749034719e-08 1.7835697153190128e-05 1.6164153901979381e-13 -9.4520655898362917e-13 1.7748770445174660e-12 0.0000000000000000 -48.406431667502837 -130.90513559487593 146.85896726379221 225.63426853136377 0.0000000000000000 0.0000000000000000 0.0000000000000000 0.0000000000000000 3.0150025814657599 3.0300663555407827 1.0150638473637412 1.0074580931248618 97.704742621083767 97.704629309804972 1.0075037612461475 
-53.082391532017724 -84.933776325010072 77.106307201637037 -53.082391532017716 -84.933776325010072 77.106307201637037 -35.244240323189061 -8.2914624312694214e-07 6.3762396331393083e-06 -1.3771387414802281e-05 0.0000000000000000 -2.2950397374825620e-10 3.5423515899153676e-09 2.5711892470257202e-08 2.5719725264703927e-05 7.0113029040192198e-13 1.2134700272995644e-11 2.1364368910822352e-12 0.0000000000000000 -53.009977022357148 -84.940192361847963 77.707205907375524 356.07450292316213 0.0000000000000000 0.0000000000000000 0.0000000000000000 0.0000000000000000 3.0129257828697957 3.0258873236295738 1.0129615628672892 1.0065055663502265 107.66925097001560 107.67015485936857 1.0064596782583630 
-40.370253349767204 -85.653799078517295 66.850342945109333 -40.370253349767175 -85.653799078517295 66.850342945109333 -43.407593632433240 -3.4566148270125393e-07 2.0548365321796804e-06 -7.0623830988271393e-06 0.0000000000000000 6.8287327996809978e-11 4.9933242185784259e-10 2.3229899160036239e-08 2.4840866278004204e-05 1.2000246575589118e-12 1.2869726919264299e-12 -2.4936478139306274e-12 0.0000000000000000 -40.313282635619565 -85.652866469445740 67.489144002613742 334.72004880612383 0.0000000000000000 0.0000000000000000 0.0000000000000000 0.0000000000000000 3.0125008321083881 3.0250395986825156 1.0125387988556545 1.0063971595028114 124.15987955815909 124.16039851689344 1.0062497958433250 
-42.988345130964667 -94.073072585592286 82.703349718892881 -42.988345130964689 -94.073072585592342 82.703349718892895 -31.427808232731191 6.7094693713845486e-06 2.2723634667751583e-06 -6.7210724564588690e-06 0.0000000000000000 8.0124080301716037e-10 1.1551088081253275e-09 2.6339419667599744e-08 2.5222397751269441e-05 5.9930070234827254e-12 2.1780332511078093e-12 8.8606417085866738e-12 0.0000000000000000 -42.930125987095458 -94.071309017270835 83.274511392489799 283.94561953274422 0.0000000000000000 0.0000000000000000 0.0000000000000000 0.0000000000000000 3.0132794719093337 3.0265993441071561 1.0133199041834404 1.0065745955377410 103.95906294481667 103.95640295999193 1.0066378386023513 
-45.008910601873751 -98.984881215420401 67.386753884973146 -45.008910601873751 -98.984881215420458 67.386753884973146 -38.823596965649884 3.7054777096203185e-06 3.6074358413027506e-06 -1.0187340530920991e-05 0.0000000000000000 3.1966998492727334e-11 3.3889974160317138e-12 2.2662656085081778e-08 2.5235842905704363e-05 -2.2645880047895864e-12 -2.9637439098484683e-13 -7.8007800769503564e-12 0.0000000000000000 -44.946335306532468 -98.969717126470769 68.015559797458934 339.42980011114588 0.0000000000000000 0.0000000000000000 0.0000000000000000 0.0000000000000000 3.0131488197761622 3.0263421723347563 1.0131933978134668 1.0065416538806999 117.18561381457049 117.18179769761845 1.0065749701787394 
-35.720744334601633 -100.84608504113824 74.759063524705198 -35.720744334601619 -100.84608504113825 74.759063524705198 -36.341522686121856 3.3602952842838540e-06 2.7243103866256030e-06 -5.7946941762692174e-06 0.0000000000000000 8.1371857296336503e-10 -2.5853443584115474e-10 2.3476536322830769e-08 2.5288634928192744e-05 3.7808388668567106e-12 -1.6048340356836178e-12 1.3561979176659083e-12 0.0000000000000000 -35.672109309640206 -100.83293553867907 75.360366609178811 338.44965823895870 0.0000000000000000 0.0000000000000000 0.0000000000000000 0.0000000000000000 3.0122034435126910 3.0244428822539167 1.0122394692599668 1.0063499731936663 110.50491810167036 110.50412861842781 1.0061010856711272 
-49.042914738958778 -112.01839401946397 64.742015804325675 -49.042914738958764 -112.01839401946397 64.742015804325675 -35.796273738278082 6.2118831843669192e-06 3.7241747274188067e-06 -6.6480536082399384e-06 -33.224018028842757 3.4293227979542706e-11 5.8859306317771135e-12 2.3106728530564169e-08 2.4431767463892364e-05 -1.9333005803040075e-12 2.9424073157753576e-12 -1.6454521010921351e-12 2.4126516344318131e-05 -48.975793059600008 -111.99207679200002 65.383142959360015 326.57209562220959 0.0000000000000000 0.0000000000000000 0.0000000000000000 0.0000000000000000 3.0133813279505621 3.0268029031234098 1.0134216083982195 1.0066335873729333 112.85456657885287 112.86792731494482 1.0066883153717880 
-25.279877232549619 -110.50689513651264 66.838295303544456 -25.279877232549634 -110.50689513651274 66.838295303544484 -40.447755882209634 1.1820658132114963e-06 1.8933803260122980e-06 -6.5093579642157320e-06 0.0000000000000000 2.0607879985812261e-11 5.5933174758493457e-12 2.2754743311814707e-08 2.4397471473279868e-05 3.7167795398326099e-13 -5.2047897789887872e-13 -2.6309700757261434e-13 0.0000000000000000 -25.239536857883341 -110.48187134057846 67.469656361758609 349.35568362690350 0.0000000000000000 0.0000000000000000 0.0000000000000000 0.0000000000000000 3.0128943518137130 3.0258282800079184 1.0129339633317069 1.0064943488881664 120.60118920160315 120.59829142709430 1.0064461493574410 
-44.137445889119022 -111.29429916394504 75.863085448284153 -44.137445889119036 -111.29429916394508 75.863085448284181 -31.659168576448657 3.4419400785626128e-06 -2.6597600503981898e-06 -4.0436230951185797e-06 0.0000000000000000 3.1467578542887509e-11 5.7526206020952494e-12 2.1239426328811817e-08 2.4686340236995045e-05 -4.6444593746919047e-14 -1.6915414349190732e-12 3.8880736230970824e-12 0.0000000000000000 -44.075852747763513 -111.26860156453857 76.452402029906395 268.59635586333832 0.0000000000000000 0.0000000000000000 0.0000000000000000 0.0000000000000000 3.0137817240755660 3.0276121935720410 1.0138305203122087 1.0065465220043786 107.30976388648200 107.35977345050527 1.0068915222878443 
-58.346549070256557 -106.63024648118720 104.88119588286595 -58.346549070256529 -106.63024648118713 104.88119588286598 -19.608802233835132 1.2332856298105118e-06 6.7433340735482316e-06 -9.3159740141616571e-07 0.0000000000000000 3.1497112801630946e-09 3.7424490220006978e-09 2.4169167048680333e-08 2.5015589709592664e-05 -1.1164064186391239e-12 4.2151725933767397e-13 5.5774394219690798e-14 0.0000000000000000 -58.254647241440821 -106.62760994408018 105.33920711112118 241.62621693813244 0.0000000000000000 0.0000000000000000 0.0000000000000000 0.0000000000000000 3.0160703969187481 3.0322086872229854 1.0161383766474821 1.0079370264170981 94.945902878697623 94.946086771932201 1.0080368770209953 
-64.469047469256168 -90.078330700811335 96.181354209139400 -64.469047469256125 -90.078330700811364 96.181354209139442 -27.531004008860496 -2.8855287396769092e-06 2.4048804581682522e-06 3.8667507389852084e-06 0.0000000000000000 9.6220292344184127e-10 8.2596621863819840e-10 2.3310901317250222e-08 2.2820758489834134e-05 4.9823785621549205e-13 5.4653565517887010e-13 -3.9504950317857169e-12 0.0000000000000000 -64.370648572599308 -90.090304358695661 96.688480747766732 239.98138923263960 0.0000000000000000 0.0000000000000000 0.0000000000000000 0.0000000000000000 3.0142013398273870 3.0284482526970482 1.0142469433793624 1.0068141605729251 100.47391722312183 100.47411851153612 1.0070980505055058 
-76.028993492112221 -99.703398599581220 100.84400719818275 -76.028993492112207 -99.703398599581263 100.84400719818271 -25.731161277571466 -5.1999250504158635e-06 5.8623961866021484e-06 -1.2786573350212036e-06 0.0000000000000000 1.7039139181756156e-09 2.2490967528278218e-09 2.2377437293409407e-08 2.4007182103514470e-05 1.1472453832839280e-12 -7.6625128597760955e-13 6.2229649537015054e-13 0.0000000000000000 -75.913673002404863 -99.702254402691466 101.32606574872912 288.13617662859207 0.0000000000000000 0.0000000000000000 0.0000000000000000 0.0000000000000000 3.0147460904596950 3.0295450384283287 1.0147989990439117 1.0071614372882942 99.911989413199649 99.912823692138787 1.0073724292991573 
-55.251096127585384 -93.577329634069670 102.85517204273214 -55.251096127585392 -93.577329634069713 102.85517204273218 -25.898810362969552 -3.5867972217060025e-07 3.1110385721571959e-06 1.3047996639096773e-06 0.0000000000000000 1.9605204754484120e-09 1.6889194083993117e-09 2.4571175895681532e-08 2.3151137065271418e-05 8.6103989876506537e-13 7.2028750835676624e-13 4.8843674064821308e-13 0.0000000000000000 -55.164710769962618 -93.586508083202432 103.32606452766413 222.68531933077850 0.0000000000000000 0.0000000000000000 0.0000000000000000 0.0000000000000000 3.0144295889486683 3.0289038574832334 1.0144743022779859 1.0071675508292850 101.55547283859383 101.55513696287886 1.0072111902470839 
-45.826274298898916 -175.97685353931627 155.43052537848558 -45.826274298898923 -175.97685353931629 155.43052537848556 -24.269029693100400 -2.3932289649146036e-06 -3.2709783243320545e-06 6.0467662507780570e-06 0.0000000000000000 3.2440126973565242e-11 1.8123350042920098e-11 7.8795903135642204e-09 1.6108888210322236e-05 1.8151786947353325e-13 1.9195669866185909e-13 -4.5412806593816364e-13 0.0000000000000000 -45.762777822239421 -175.89580528354742 155.64915507299250 248.91339099022119 0.0000000000000000 0.0000000000000000 0.0000000000000000 0.0000000000000000 3.0143909908851607 3.0288291615973759 1.0144382137208072 1.0070096592914757 95.206605882945965 95.206621944994865 1.0071932058552511 
-51.505392380713971 -185.65213908204353 167.99361283702871 -51.505392380713950 -185.65213908204353 167.99361283702868 -26.081030976077983 9.8406848632408331e-08 -1.7275137194739415e-07 -4.1176535661840125e-08 -26.715204603504223 3.5706916590161335e-11 1.9974147336121462e-11 5.7701677880217517e-09 1.5742294993669235e-05 -2.5220721223985800e-14 2.8723100159010933e-13 2.7930879532685617e-13 1.5827459569185712e-05 -51.435495451599998 -185.56281141599996 168.15371392000000 294.81703600272857 0.0000000000000000 0.0000000000000000 0.0000000000000000 0.0000000000000000 3.0132270218436830 3.0264943078293780 1.0132673214094703 1.0066697855920148 96.185665028797203 96.185657358546379 1.0066118207148944 
-42.733611717362216 -171.25844926861302 166.10144410220573 -42.733611717362230 -171.25844926861294 166.10144410220570 -25.707593630279639 3.2429300693667063e-07 -3.5725197815885290e-07 1.8399636823169230e-06 0.0000000000000000 3.3074173621998761e-10 -1.7701521999023030e-09 7.1609417324811038e-09 1.5828758627224525e-05 -8.3246806757070650e-14 -3.8192686805039542e-13 3.7013837750283840e-13 0.0000000000000000 -42.672974891599750 -171.18173466392949 166.26923354793541 271.88244999766295 0.0000000000000000 0.0000000000000000 0.0000000000000000 0.0000000000000000 3.0133119783232165 3.0266656119918967 1.0133536717518370 1.0067151060292119 95.432213372793527 95.432210270191092 1.0066546983038906 
-59.461598615650452 -178.10024870099875 157.54182242800823 -59.461598615650466 -178.10024870099875 157.54182242800832 -26.731057721616136 -1.7072646363963610e-06 -5.1435060855484521e-07 -8.7435385776977416e-10 0.0000000000000000 4.0286725344618191e-11 1.8520782130160285e-11 7.5250804476567607e-09 1.6269294038266930e-05 2.6091807579711934e-13 -7.8678948868570603e-14 5.3240446713766089e-13 0.0000000000000000 -59.382734921100123 -178.01738339707751 157.75061606229067 243.94852352315442 0.0000000000000000 0.0000000000000000 0.0000000000000000 0.0000000000000000 3.0132219480282041 3.0264831271964807 1.0132612117058313 1.0067027445862482 97.045194193163269 97.045202617662042 1.0066087873503664 
-30.708457347640877 -102.73696356899502 94.818804105237163 -30.708457347640884 -102.73696356899502 94.818804105237163 -23.286244351089309 2.1406421899972821e-06 3.8743274373622317e-06 -1.0086672619325691e-05 0.0000000000000000 -5.3803060642266820e-10 1.5773300803338703e-09 2.2108619345699647e-08 2.4800421060970792e-05 -2.3547175428266010e-12 7.2405023105168218e-12 -1.5305076670103521e-12 0.0000000000000000 -30.660097366607719 -102.72526557899965 95.328291536857705 204.58703120518373 0.0000000000000000 0.0000000000000000 0.0000000000000000 0.0000000000000000 3.0144916935404491 3.0290294644738065 1.0145378029877936 1.0071452389034310 95.174991837005578 95.160921899787795 1.0072426374874650 
-18.837301042978957 -110.93133813489759 92.843829551715984 -18.837301042978950 -110.93133813489752 92.843829551715942 -27.900211687378924 3.4554479249022737e-06 6.0653338603837114e-07 -8.4702181667086149e-06 0.0000000000000000 1.6899506100065409e-11 5.6740445675274032e-12 1.8388260580870508e-08 2.4312202063236240e-05 4.5307311756359451e-12 1.7588091107414462e-13 -1.8158021352539239e-12 0.0000000000000000 -18.804221549666405 -110.90595113131390 93.354036648627854 267.24800799435923 0.0000000000000000 0.0000000000000000 0.0000000000000000 0.0000000000000000 3.0133569757048089 3.0267531479045382 1.0133962041176146 1.0067329799863898 101.12715409271506 101.14265588036402 1.0066758833863754 
-33.863804212274495 -104.72680574480503 84.446895577988073 -33.863804212274516 -104.72680574480502 84.446895577988030 -29.806469788630647 3.1233721920943810e-06 2.8692077940408269e-08 -7.2801916289383362e-06 0.0000000000000000 -9.5550180202978833e-10 6.0293792389327933e-10 2.2924587922917844e-08 2.4139921121380048e-05 -1.4828864050993307e-12 2.9271795455583133e-13 -1.0607827082153353e-12 0.0000000000000000 -33.815892125380543 -104.71065599625929 85.007910193808286 270.69679205096202 0.0000000000000000 0.0000000000000000 0.0000000000000000 0.0000000000000000 3.0126876007090146 3.0254147759588208 1.0127272102715308 1.0065365184860104 100.93781536309658 100.92341070821661 1.0063433507288631 
-18.954395182467149 -100.39605281116559 94.897424140806805 -18.954395182467142 -100.39605281116562 94.897424140806820 -26.021130590962752 1.0979292668945085e-06 7.7329998882039043e-08 -2.5432755352625071e-06 0.0000000000000000 1.6968287885887889e-11 3.6621955468163484e-12 1.8043449512283871e-08 2.3286456634177387e-05 1.9296214192074323e-12 1.6532306248860569e-12 4.5946132409669080e-13 0.0000000000000000 -18.921183722278450 -100.37968114352928 95.398064000337470 185.31956687594098 0.0000000000000000 0.0000000000000000 0.0000000000000000 0.0000000000000000 3.0135744356093017 3.0271875341704995 1.0136131284631025 1.0067491549248948 98.004623967314259 98.079503302038347 1.0067836622381880 
-31.169705633818658 -118.00748017416316 173.08204481839331 -31.169705633818669 -118.00748017416313 173.08204481839323 -29.939583859014306 3.4992978259271578e-06 3.3710325194049714e-06 2.3965989505048226e-06 0.0000000000000000 1.5887981077805545e-09 -5.7275518298627672e-10 5.7186796044208199e-09 1.7277173069698771e-05 2.4012943483750492e-13 -2.0188223706293247e-14 -4.0114199172189363e-13 0.0000000000000000 -31.124431206993112 -117.97934695114738 173.21200361760444 258.17126679857051 0.0000000000000000 0.0000000000000000 0.0000000000000000 0.0000000000000000 3.0133755087558303 3.0267906107259348 1.0134151323637033 1.0067379013004205 103.23723582143882 103.23723544123958 1.0066852352154578 
-30.688586752027621 -133.17689599162316 164.63587412733230 -30.688586752027621 -133.17689599162310 164.63587412733241 -26.605577761034212 3.4024712245837864e-06 -2.1544932061324835e-08 6.1149834602342980e-07 0.0000000000000000 1.7855920884490624e-09 -8.1559557486412451e-10 7.3882540936167635e-09 1.6508443150507506e-05 -1.7303597524397557e-14 -4.7504535189095126e-13 4.0330489753916980e-13 0.0000000000000000 -30.642131568542830 -133.13454878399213 164.80820313575899 262.24283076768535 0.0000000000000000 0.0000000000000000 0.0000000000000000 0.0000000000000000 3.0137648613780685 3.0275752929703974 1.0138104749923267 1.0069436989512754 99.061989788931456 99.061986665964127 1.0068815293723719 
-42.739374622930981 -120.13049119498153 163.53661057866671 -42.739374622930981 -120.13049119498149 163.53661057866668 -24.737135011632802 5.5118050544717053e-06 3.6410319397414065e-06 2.5376155067655791e-06 0.0000000000000000 3.1636666105735200e-09 -2.0937772383533893e-09 1.1176402631009791e-08 1.7069651646557341e-05 -2.2039264373174802e-13 -5.1042218875411093e-13 -2.5167727449325490e-12 0.0000000000000000 -42.676694985445003 -120.10595080876966 163.70375490782192 268.28772502602959 0.0000000000000000 0.0000000000000000 0.0000000000000000 0.0000000000000000 3.0152820941572851 3.0306237180218094 1.0153416899575374 1.0073800359137832 98.913361195684061 98.913333569466744 1.0076416541569868 
-23.785980058198462 -114.26220477622306 161.62299112941983 -23.785980058198451 -114.26220477622302 161.62299112941980 -29.450161138820345 1.7244860088471444e-06 1.2730786552198077e-06 2.4344209258845979e-06 0.0000000000000000 1.9748064294944356e-11 6.3090505042495685e-12 6.8398231523048034e-09 1.7103834771917764e-05 -1.2495241710894697e-13 -3.9613683384384686e-13 3.4351508037127875e-13 0.0000000000000000 -23.747323328369049 -114.23396745764113 161.81277151251504 321.01516800445251 0.0000000000000000 0.0000000000000000 0.0000000000000000 0.0000000000000000 3.0131621928812815 3.0263637430282002 1.0132015817483582 1.0066937179753874 102.30120520727692 102.30120613105842 1.0065791908322168 
-6.4826035499297010 -105.00787089232081 108.89607619723697 -6.4826035499297028 -105.00787089232084 108.89607619723694 -19.704997692735525 9.5002052830450487e-08 1.4313894121951880e-07 -4.6669470272654319e-06 -17.798231866112271 9.7859480935325038e-12 4.5488612876454226e-12 1.5693000898764353e-08 1.9801440789301925e-05 -1.5459453355163133e-13 4.1667499747460415e-14 2.8969614776203210e-12 1.8943351633109692e-05 -6.4634479885999987 -104.98755276399999 109.33149947120000 327.67017865987640 0.0000000000000000 0.0000000000000000 0.0000000000000000 0.0000000000000000 3.0133600907572999 3.0267623782476174 1.0134023258574998 1.0067532763036304 84.001683860248733 84.019899685255723 1.0066788874407049 
-11.832022872267716 -97.130457746937623 100.96531240767625 -11.832022872267716 -97.130457746937623 100.96531240767625 -24.475018176280098 -6.1573971478018389e-07 3.2207658131277007e-08 -5.1958738883214403e-06 -23.595290173655545 1.2865583598475894e-11 3.0352526048105233e-12 1.7024614717975339e-08 2.1900567431533398e-05 3.4168029823026610e-13 -2.8993765413600563e-13 1.6489869044958903e-12 2.1789198120582600e-05 -11.806838433999999 -97.116880539599975 101.43768333439998 212.90238721710071 0.0000000000000000 0.0000000000000000 0.0000000000000000 0.0000000000000000 3.0132359014680961 3.0265116392733153 1.0132757731605879 1.0066755899549498 92.943879232361141 93.056449363364081 1.0066160145203631 
-15.879350477445760 -110.38502229762467 102.63282431651351 -15.879350477445763 -110.38502229762466 102.63282431651351 -22.331197416199135 2.3648537744828942e-06 4.8334893531249064e-08 -9.7035361600420232e-06 0.0000000000000000 1.5195959074398857e-11 5.5727644721059733e-12 1.6744634012688667e-08 2.1394588440959664e-05 -9.4696807418141780e-13 3.2881394907153151e-13 3.8631484871201041e-12 0.0000000000000000 -15.849604639409371 -110.36010279166017 103.09742667861765 236.22178992679409 0.0000000000000000 0.0000000000000000 0.0000000000000000 0.0000000000000000 3.0132728277544931 3.0265874311597063 1.0133146407997771 1.0067638406359869 90.151411097946095 89.846882876089225 1.0066353207290251 
-23.788237928874466 -99.549860017044750 101.81342718735284 -23.788237928874469 -99.549860017044750 101.81342718735281 -22.718617548932112 2.5784346479896938e-06 4.5327597144560885e-06 -6.3954610469933472e-06 0.0000000000000000 1.9748969820598816e-11 3.4950098370956084e-12 1.6882210518431862e-08 2.2014523185162578e-05 1.7808193596990072e-12 -7.7010892312453964e-13 3.2114417831391104e-12 0.0000000000000000 -23.749578654390465 -99.534212460059550 102.28184693721489 211.57004919854941 0.0000000000000000 0.0000000000000000 0.0000000000000000 0.0000000000000000 3.0137824935534367 3.0276113076177276 1.0138288537434688 1.0069226548319019 92.103947400415962 92.104410257470775 1.0068906554567125 
-54.175538216408519 -108.37676699856695 113.43200687620046 -54.175538216408533 -108.37676699856689 113.43200687620042 -14.762332617382818 2.7163474002709982e-06 9.0261944466595960e-06 -6.1536992138973455e-06 0.0000000000000000 5.8882454144867656e-09 3.3988752600204394e-09 2.5523793411866926e-08 2.7878695083593001e-05 3.6374039365079997e-12 7.4308114301935645e-12 -1.0493164002531384e-11 0.0000000000000000 -54.087034329299712 -108.37170302860723 113.84396407125838 191.01171882188567 0.0000000000000000 0.0000000000000000 0.0000000000000000 0.0000000000000000 3.0175734185846248 3.0352273367355682 1.0176540289163374 1.0085208274091007 89.259398715184503 89.259010501920997 1.0087884070898985 
-41.762595225919327 -107.75544530280008 110.54857593987096 -41.762595225919320 -107.75544530280011 110.54857593987103 -17.329168778404821 -1.7143247607554306e-06 5.9034919241317757e-06 4.9424756494267919e-07 0.0000000000000000 5.0048899820587897e-09 2.8438764016903091e-10 2.4158341333194091e-08 2.1944202017214797e-05 3.7051403218536282e-12 -3.3726805824574388e-12 -2.7353308298938048e-12 0.0000000000000000 -41.690910404717421 -107.74885629568415 110.97670241767709 270.34727434602189 0.0000000000000000 0.0000000000000000 0.0000000000000000 0.0000000000000000 3.0161803419707658 3.0324221457957630 1.0162418671321489 1.0080320296325662 92.004465572127671 92.003138284486326 1.0080882341906792 