# For a description of the Tecplot format see the Tecplot User's guide.
#
Variables=x,y,z,s_u,s_v,s_w,s_p,mono_f_vel_u,mono_f_vel_v,mono_f_vel_w,const,u_nu,v_nu,w_nu,p_nu,x_nu,y_nu,z_nu,const,u_ref,v_ref,w_ref,vol_ref,x_ref,y_ref,z_ref,const,I1,I2,I3,J,p1,p2,p3
Zone f=fepoint, n=1339, e=6475, et=brick, c=black
-58.7182 -70.4674 176.276 -58.718207360005401 -70.467418791622308 176.27607959738660 -24.333098176734186 7.0731009506712811e-10 -8.3378814563086879e-08 2.2478027785104410e-07 -24.432991139996432 1.9706233777595783e-08 -1.3454410571767106e-09 5.2352663404420241e-07 0.00021496411209615421 2.8264680238987426e-13 2.9818937357471970e-13 -2.2434584925784182e-12 0.00021573985783439372 -58.668039002000000 -70.473359259200009 176.35421013599998 215.13583165143561 0.0000000000000000 0.0000000000000000 0.0000000000000000 0.0000000000000000 3.0087040749155038 3.0174259420025540 1.0087218776838414 1.0042843635166852 76.048159815948537 76.048997208576552 1.0043514960837450 
-65.017856537488839 -76.412017682860466 183.96942414923134 -65.017856537488825 -76.412017682860466 183.96942414923129 -25.126225006080816 -3.5985251580638987e-07 -7.5614783765488950e-07 8.1611359860921849e-07 -25.109349597110562 2.1499354027100515e-08 -6.0465726176017764e-10 3.6910926870525884e-07 0.00021857260603951839 4.0047198172778221e-12 1.9767731574016594e-12 -6.8910374000660066e-12 0.00022197477318953898 -64.963123215600007 -76.414687385200040 184.02450960799996 253.42820447565578 0.0000000000000000 0.0000000000000000 0.0000000000000000 0.0000000000000000 3.0088812416737478 3.0177812680685983 1.0089000380881481 1.0042843635166852 78.105967490767370 78.105908557040053 1.0044402139576882 
-69.721734538467089 -71.578817269838694 177.16119306839019 -69.721734538467089 -71.578817269838709 177.16119306839025 -24.523202566378007 -3.3945209540101326e-07 -1.4783614857623028e-07 1.1109453153615172e-07 -24.832443947222199 2.2838266771664506e-08 -1.2069433369399363e-09 5.0576105370403468e-07 0.00021578578928997604 3.7183608212422501e-12 1.6680014870622157e-12 -1.7691879832577904e-12 0.00021780677833875374 -69.663592608799988 -71.584146237200002 177.23667228800005 218.29881668600640 0.0000000000000000 0.0000000000000000 0.0000000000000000 0.0000000000000000 3.0089842975733281 3.0179876691480376 1.0090033835107464 1.0042843635166847 77.445289486705747 77.445081785359662 1.0044916826095993 
-57.214083695349295 -87.730332047233915 171.57863721621530 -57.214083695349260 -87.730332047233901 171.57863721621538 -23.472005802542444 -4.9436820591458557e-07 6.6084197833395577e-07 1.8743206568307961e-06 0.0000000000000000 1.9278102004506578e-08 8.0577509942170167e-10 6.1781162163931914e-07 0.00021175997601677701 3.1406297733371965e-12 -8.0493766373473349e-12 -5.1492721096138432e-12 0.0000000000000000 -57.165005282198301 -87.726774323660578 171.67083873969227 259.76550921814646 0.0000000000000000 0.0000000000000000 0.0000000000000000 0.0000000000000000 3.0078564494186497 3.0157259692626739 1.0078695248792613 1.0040067748274706 71.348871977043203 71.348827614542202 1.0039270058174554 
-88.970434997458980 -83.379086012028736 116.85680183051088 -88.970434997458995 -83.379086012028722 116.85680183051089 -21.817233905082666 -2.4592608365934496e-07 1.1767337791224116e-06 -5.3087115963215928e-07 0.0000000000000000 2.8317195256179209e-08 2.6355291560253846e-10 1.7161639100926607e-06 0.00021023124371337507 2.8388892122732893e-12 -1.2178903510677595e-11 1.4787077969932389e-12 0.0000000000000000 -88.898344731952406 -83.377922378373768 117.11292023788836 283.91631954144174 0.0000000000000000 0.0000000000000000 0.0000000000000000 0.0000000000000000 3.0078838250672382 3.0157784334777067 1.0078946112241451 1.0040217119056567 68.467515222441364 68.473501546166759 1.0039395219596730 
-97.674090050904951 -66.893793928611572 107.93731506176084 -97.674090050904951 -66.893793928611572 107.93731506176086 -23.796023445512823 -3.5743693538623682e-08 3.4112189264291564e-07 -2.2657066368372968e-06 -24.133644334860779 3.0794607587016070e-08 -1.7907619970225495e-09 1.8951918853149508e-06 0.00022051807209752105 -2.3814949959788224e-12 -1.8493714512214286e-12 9.6523479135784688e-12 0.00022011612262035524 -97.595692787999965 -66.901700632800015 108.22015140479995 322.25788568967050 0.0000000000000000 0.0000000000000000 0.0000000000000000 0.0000000000000000 3.0088659016521437 3.0177511787714697 1.0088852893858558 1.0042843635166854 75.679641669900505 75.728202094280746 1.0044328706577288 
-79.727925637291776 -67.523890149859767 108.33382619849789 -79.727925637291733 -67.523890149859724 108.33382619849789 -23.377819774305284 -6.6324579142598054e-07 5.5079446112390812e-07 -1.0602153881504099e-06 0.0000000000000000 2.5686418534710817e-08 -1.7122446377415557e-09 1.8872332879782403e-06 0.00021860257426582061 6.4272731909265922e-12 -4.4137602731626801e-12 5.8012477247605135e-12 0.0000000000000000 -79.662532843379708 -67.531450170133141 108.61547480962874 295.38956150422752 0.0000000000000000 0.0000000000000000 0.0000000000000000 0.0000000000000000 3.0081893514130287 3.0163934511354511 1.0082041071146908 1.0041096377569780 72.447462348302963 72.454581758879684 1.0040936372313911 
-94.553924154774933 -81.839820266195616 108.34469215384276 -94.553924154774919 -81.839820266195616 108.34469215384281 -23.223628234957275 -9.1790727517577687e-07 7.0538818709743619e-07 -1.6755127202524921e-06 0.0000000000000000 2.9906480404108537e-08 7.1738656681752389e-11 1.8870151837768743e-06 0.00021874229975618330 1.0560965943466148e-11 -5.6427439394074443e-12 7.4221469211413152e-12 0.0000000000000000 -94.477787882002133 -81.839503548705352 108.62630821647583 293.80807890400462 0.0000000000000000 0.0000000000000000 0.0000000000000000 0.0000000000000000 3.0081622164003359 3.0163381658945259 1.0081759558225076 1.0040981978684691 71.758030455643691 71.624010400854388 1.0040796136348578 
-47.341611552082504 -125.98628820015273 138.48995318866974 -47.341611552082497 -125.98628820015267 138.48995318866977 -14.913540161558142 -8.7403534665886637e-08 5.9986291246920511e-07 2.1555012861069804e-06 0.0000000000000000 7.4151007274037471e-08 -9.7289769330045990e-09 1.2793613913576415e-06 0.00017977406120350540 -3.6323381017870910e-13 -4.6208887009105451e-12 -6.5570030585300187e-12 0.0000000000000000 -47.292355390977058 -125.96433165720771 138.67232254046354 244.31333887135355 0.0000000000000000 0.0000000000000000 0.0000000000000000 0.0000000000000000 3.0095713805676509 3.0191681836443722 1.0095968234393455 1.0048224756080426 62.992418498337940 62.992890048054960 1.0047869508395457 
-34.232175409256108 -140.46674172794391 139.02776295152927 -34.232175409256108 -140.46674172794386 139.02776295152933 -15.026835835497604 9.7548479034439630e-07 -3.3185496802152688e-07 1.1175738683171196e-06 0.0000000000000000 3.9434529588111063e-08 7.5888313885576951e-09 1.2817678263828821e-06 0.00017741276262171819 -1.1319992328139093e-11 2.4976297220193625e-12 -2.4870405279679015e-13 0.0000000000000000 -34.196989160350306 -140.43319657724166 139.21506628885933 210.16870282748488 0.0000000000000000 0.0000000000000000 0.0000000000000000 0.0000000000000000 3.0093626385917194 3.0187484860253218 1.0093858638084929 1.0046906627959498 62.496911129084381 62.496964696762014 1.0046819847120476 
-30.978296880913696 -127.66666701997619 142.54948581762486 -30.978296880913710 -127.66666701997616 142.54948581762491 -15.945505946538042 6.7488364579430669e-07 3.0726938636261308e-07 1.9689414015628755e-06 0.0000000000000000 1.1810364739135715e-08 5.7824321442190288e-09 1.2004718088487465e-06 0.00018056812840144842 -8.2730098019288753e-12 -2.0344228448460922e-12 -1.9410224393890317e-12 0.0000000000000000 -30.948229910445860 -127.64113600963313 142.72864290474456 229.21992526850030 0.0000000000000000 0.0000000000000000 0.0000000000000000 0.0000000000000000 3.0090738344788250 3.0181685042811504 1.0090946835138366 1.0045710663540419 63.030105719929736 63.029628608597662 1.0045370353492207 
-48.455832078474714 -130.93023082676442 146.69968376750873 -48.455832078474714 -130.93023082676439 146.69968376750873 -15.520325434687882 5.4101840284355507e-07 1.6766528750288398e-06 -8.6595240259116510e-08 0.0000000000000000 6.1800811429116210e-08 -7.4758200223365987e-09 1.1240014111487056e-06 0.00017911663832179689 -4.3871823697303466e-12 -1.6005850853413751e-11 5.8210218003734212e-12 0.0000000000000000 -48.406431667502837 -130.90513559487593 146.85896726379221 225.63426853136377 0.0000000000000000 0.0000000000000000 0.0000000000000000 0.0000000000000000 3.0096051835608510 3.0192353819857427 1.0096302175474048 1.0047749434460955 63.723162104955620 63.723303007642421 1.0048035680404821 
-53.056478148598352 -84.936158182871736 77.321686709461360 -53.056478148598366 -84.936158182871679 77.321686709461360 -23.041839770349700 -5.1963829461496897e-07 4.0924633380404924e-06 -8.7141138253241017e-06 0.0000000000000000 -8.0109734283725592e-09 -7.5852218994976708e-09 2.5624517346455057e-06 0.00023459740094599051 1.3565833154857571e-11 7.2247377789652535e-12 4.9432572384778419e-11 0.0000000000000000 -53.009977022357148 -84.940192361847963 77.707205907375524 356.07450292316213 0.0000000000000000 0.0000000000000000 0.0000000000000000 0.0000000000000000 3.0083128130327585 3.0166404843794092 1.0083276773679761 1.0041817185916388 69.950289974345594 69.979031640943447 1.0041551094561711 
-40.349880768051811 -85.653486099659048 67.079157483545245 -40.349880768051811 -85.653486099658991 67.079157483545245 -28.254721322379716 -1.9826017009625308e-07 1.3070648756119391e-06 -4.5049106870700058e-06 0.0000000000000000 9.2716542862416944e-10 5.9623559179379586e-10 2.7126213243388169e-06 0.00025336936773936742 -3.0522852388751597e-12 -5.6970754104563897e-12 4.9355522169433440e-12 0.0000000000000000 -40.313282635619565 -85.652866469445740 67.489144002613742 334.72004880612383 0.0000000000000000 0.0000000000000000 0.0000000000000000 0.0000000000000000 3.0080321268292907 3.0160799147076047 1.0080477964506647 1.0041091230381700 80.445422819988181 80.406851433354362 1.0040158053050208 
-42.967506691930879 -94.072597960451077 82.908078643610978 -42.967506691930893 -94.072597960451105 82.908078643610963 -20.645088656898245 4.2904404133001643e-06 1.4148125224252452e-06 -4.2131090316361961e-06 0.0000000000000000 4.0015374751361443e-09 -2.1872381506804305e-08 2.4397176418398370e-06 0.00022177737998536984 -2.2382193223294987e-11 4.4214128616097278e-12 5.8635134548256511e-11 0.0000000000000000 -42.930125987095458 -94.071309017270835 83.274511392489799 283.94561953274422 0.0000000000000000 0.0000000000000000 0.0000000000000000 0.0000000000000000 3.0085363596448378 3.0170894571759366 1.0085531061246558 1.0042245969685952 67.628442582110381 67.602249333987388 1.0042674146332429 
-44.986553188950275 -98.979464211364430 67.611930514444438 -44.986553188950282 -98.979464211364430 67.611930514444396 -25.309340236640786 2.4534695860262566e-06 2.2912056014050588e-06 -6.5352037678624493e-06 0.0000000000000000 1.5797666654861209e-08 2.2075809999466678e-09 2.7045850280460475e-06 0.00024451153732764455 -3.3200976499303589e-11 -2.0614422134518112e-11 -2.1408624195215207e-11 0.0000000000000000 -44.946335306532468 -98.969717126470769 68.015559797458934 339.42980011114588 0.0000000000000000 0.0000000000000000 0.0000000000000000 0.0000000000000000 3.0084492707859725 3.0169169188966074 1.0084676600975724 1.0042024870698727 75.930152957638697 76.100600060083408 1.0042248600683445 
-35.703359876160413 -100.84145394243656 74.974470954286687 -35.703359876160420 -100.84145394243659 74.974470954286730 -23.784275297581338 2.1762347297721803e-06 1.7148691144466729e-06 -3.6640712317058852e-06 0.0000000000000000 -9.2631153182749727e-09 -5.0456470873528966e-09 2.5555104595468299e-06 0.00023735543756084923 -1.7811045722263012e-12 -1.9934574655661148e-11 2.1690507792214254e-11 0.0000000000000000 -35.672109309640206 -100.83293553867907 75.360366609178811 338.44965823895870 0.0000000000000000 0.0000000000000000 0.0000000000000000 0.0000000000000000 3.0078444215956122 3.0157037127048110 1.0078592992198390 1.0040799832940424 71.811829693870791 71.792673860263960 1.0039219440639426 
-49.018932956797677 -112.00899282639604 64.971604694898360 -49.018932956797691 -112.00899282639604 64.971604694898360 -23.399615695562829 4.0405373500609346e-06 2.3150818001318683e-06 -4.2192046093121963e-06 -21.722093047686421 1.6945436964212190e-08 3.8312470418411237e-09 2.7575804808499527e-06 0.00023359825094628603 -2.7654744974683419e-11 1.1880442401728585e-11 2.8777902899219937e-11 0.00023540803304053018 -48.975793059600008 -111.99207679200002 65.383142959360015 326.57209562220959 0.0000000000000000 0.0000000000000000 0.0000000000000000 0.0000000000000000 3.0085849384086720 3.0171864626596308 1.0086015330548128 1.0042587376542047 73.187972294108249 73.239991538530802 1.0042915094122409 
-25.265464093802414 -110.49795599057900 67.064386935708185 -25.265464093802404 -110.49795599057906 67.064386935708185 -26.423884547796003 7.6371778104206801e-07 1.1782592094498111e-06 -4.1264782295697346e-06 0.0000000000000000 1.0184271943998457e-08 3.6429575467344932e-09 2.7155750855767380e-06 0.00024414541637786586 -7.3418609400340138e-12 -1.6603236181214638e-11 9.2616348838899217e-12 0.0000000000000000 -25.239536857883341 -110.48187134057846 67.469656361758609 349.35568362690350 0.0000000000000000 0.0000000000000000 0.0000000000000000 0.0000000000000000 3.0082792142419232 3.0165747499026883 1.0082955449688820 1.0041699618170683 78.267026889799624 78.258018006246985 1.0041391840518403 
-44.115439388198347 -111.28511931801584 76.074120870989816 -44.115439388198340 -111.28511931801584 76.074120870989844 -20.807233169950859 2.2221940371952262e-06 -1.7398068332590745e-06 -2.5383650691860389e-06 0.0000000000000000 1.5549711859276505e-08 3.7410423162076434e-09 2.5347357226479512e-06 0.00022268305500087676 -1.9370256178837323e-11 2.6855430956159254e-12 2.1687433179436063e-11 0.0000000000000000 -44.075852747763513 -111.26860156453857 76.452402029906395 268.59635586333832 0.0000000000000000 0.0000000000000000 0.0000000000000000 0.0000000000000000 3.0088435383121075 3.0177071399769964 1.0088636150773771 1.0042063221768751 69.762344603981489 69.722458438063526 1.0044220346647708 
-58.313411703396866 -106.62968013497795 105.04529461112423 -58.313411703396909 -106.62968013497797 105.04529461112421 -13.256252103584284 7.8864864234498160e-07 4.1935422885948025e-06 -5.5524988422406372e-07 0.0000000000000000 9.0513546149875274e-08 -6.4958872296424320e-08 1.9815245403309710e-06 0.00018523775592272742 -1.1163090161338650e-11 -4.2587224082845756e-11 6.5824975641913308e-12 0.0000000000000000 -58.254647241440821 -106.62760994408018 105.33920711112118 241.62621693813244 0.0000000000000000 0.0000000000000000 0.0000000000000000 0.0000000000000000 3.0102690057912596 3.0205657038132423 1.0102967204958124 1.0050725898931379 61.999805700457337 62.000467836729982 1.0051351690191810 
-64.433674074681406 -90.082902850729369 96.363142619406247 -64.433674074681434 -90.082902850729383 96.363142619406275 -18.187671482828492 -1.8123701865146325e-06 1.4697952876594470e-06 2.4600220497681106e-06 0.0000000000000000 6.4081559172440932e-08 -7.1380356328000501e-08 2.1736440794915016e-06 0.00020140488834926887 1.3638931659012087e-11 -1.4296911117401360e-11 -1.6876324680747593e-11 0.0000000000000000 -64.370648572599308 -90.090304358695661 96.688480747766732 239.98138923263960 0.0000000000000000 0.0000000000000000 0.0000000000000000 0.0000000000000000 3.0091117083400651 3.0182422601098016 1.0091305600694558 1.0043756235570573 65.437035438588040 65.420533853659677 1.0045548158849986 
-75.987495911033562 -99.703221918232728 101.01676193110174 -75.987495911033562 -99.703221918232771 101.01676193110177 -17.064763170391668 -3.2490854294981984e-06 3.6755456850103802e-06 -8.0821386562048133e-07 0.0000000000000000 7.6064640681473056e-08 -3.7245853581724471e-08 2.0719775669522048e-06 0.00019966587461139922 4.4434886979269470e-11 -4.3512625223090182e-11 1.0253341392064041e-11 0.0000000000000000 -75.913673002404863 -99.702254402691466 101.32606574872912 288.13617662859207 0.0000000000000000 0.0000000000000000 0.0000000000000000 0.0000000000000000 3.0094515733657277 3.0189249032128216 1.0094733434283460 1.0045922452712448 65.090172971098767 65.090417213500373 1.0047255486573325 
-55.219997107133871 -93.580961239992533 103.02392286935695 -55.219997107133857 -93.580961239992561 103.02392286935689 -17.179102563451170 -2.1716208209202754e-07 1.9510580691181078e-06 8.4925013903054320e-07 0.0000000000000000 8.0657599339586290e-08 -6.0602548572294825e-08 2.0376115309604455e-06 0.00019722026812232768 6.7491631362059289e-12 -1.8894939383719221e-11 4.9368730675138271e-12 0.0000000000000000 -55.164710769962618 -93.586508083202432 103.32606452766413 222.68531933077850 0.0000000000000000 0.0000000000000000 0.0000000000000000 0.0000000000000000 3.0092489795374844 3.0185164126238102 1.0092674421574512 1.0045953014269813 66.138205611326555 66.144837918380532 1.0046230499827056 
-45.803587758785604 -175.94790100997611 155.50881710051598 -45.803587758785618 -175.94790100997608 155.50881710051596 -16.155703092067842 -1.5088324098901058e-06 -2.0323171472561449e-06 3.7916028772260384e-06 0.0000000000000000 1.6030223961606416e-08 1.1798978544197425e-08 9.4035788189561487e-07 0.00017451339824765867 1.3099775433824803e-11 2.3276235501428606e-11 -2.1494029735305330e-11 0.0000000000000000 -45.762777822239421 -175.89580528354742 155.64915507299250 248.91339099022119 0.0000000000000000 0.0000000000000000 0.0000000000000000 0.0000000000000000 3.0092221684551776 3.0184637277157025 1.0092415706099553 1.0044951593114670 62.141857291178880 62.141863184000321 1.0046101463892041 
-51.480419034639283 -185.62022893360816 168.05094534857534 -51.480419034639283 -185.62022893360816 168.05094534857537 -17.285103951224890 6.8405145201072049e-08 -1.1644695231072851e-07 -3.4275830642070020e-08 -17.687288353274937 1.7646070952538621e-08 1.3004299526109264e-08 6.8861788427021509e-07 0.00017908837750105189 -1.5407061449325130e-12 1.1586576341314524e-12 1.2086388870380949e-12 0.00018178070839294273 -51.435495451599998 -185.56281141599996 168.15371392000000 294.81703600272857 0.0000000000000000 0.0000000000000000 0.0000000000000000 0.0000000000000000 3.0084903677899359 3.0169973500634693 1.0085069916706217 1.0042810547569312 62.727539104309919 62.727539720443438 1.0042444951982465 
-42.711933927244374 -171.23104089659529 166.16150056217305 -42.711933927244367 -171.23104089659532 166.16150056217299 -17.051733588561174 2.0934840549077678e-07 -2.2725985703306575e-07 1.1437137913146352e-06 0.0000000000000000 1.6286468137927872e-08 -1.8133393719748881e-09 7.3620284231987318e-07 0.00017928865787223292 -2.0626370991772119e-12 -7.0585304185387021e-13 -2.4087633026842429e-12 0.0000000000000000 -42.672974891599750 -171.18173466392949 166.26923354793541 271.88244999766295 0.0000000000000000 0.0000000000000000 0.0000000000000000 0.0000000000000000 3.0085454568624197 3.0171080877960326 1.0085626410148347 1.0043100411354922 62.260779877490009 62.260779158062334 1.0042721966700474 
-59.433421550338728 -178.07064707514880 157.61659183759747 -59.433421550338764 -178.07064707514877 157.61659183759741 -17.696657371393623 -1.0619428509666613e-06 -3.2283433283913275e-07 -4.9107873264254974e-09 0.0000000000000000 1.9909813118480779e-08 1.2063485835267507e-08 8.9805157366118493e-07 0.00018160118549652131 9.6292286452732272e-12 2.4801984302897895e-12 -1.8760813689035947e-12 0.0000000000000000 -59.382734921100123 -178.01738339707751 157.75061606229067 243.94852352315442 0.0000000000000000 0.0000000000000000 0.0000000000000000 0.0000000000000000 3.0084889358475850 3.0169940697334185 1.0085051425376153 1.0043023969405547 63.276442283122101 63.276441338895893 1.0042435750795062 
-30.691106904147812 -102.73292863536244 95.001374222922337 -30.691106904147805 -102.73292863536244 95.001374222922365 -15.573130513784415 1.3499661017430295e-06 2.4490646021058144e-06 -6.3571305810933485e-06 0.0000000000000000 2.4712014416190073e-08 -1.1948511831647932e-08 2.1764881251220700e-06 0.00019844586650540457 -4.0675611467543221e-11 -1.5487229632599550e-12 1.2713315103218117e-11 0.0000000000000000 -30.660097366607719 -102.72526557899965 95.328291536857705 204.58703120518373 0.0000000000000000 0.0000000000000000 0.0000000000000000 0.0000000000000000 3.0092815260025687 3.0185819794632436 1.0093004620470050 1.0045777703664405 62.151800116582137 62.153183989479864 1.0046394540600003 
-18.825482131262209 -110.92226924181476 93.026535712923661 -18.825482131262216 -110.92226924181476 93.026535712923717 -18.507772639851865 2.1981397932778929e-06 3.7044999778536368e-07 -5.3534146126348219e-06 0.0000000000000000 8.3511994099574882e-09 3.6958356167127175e-09 2.1944743956447965e-06 0.00020946699742398231 -1.0637869572703535e-11 -5.6099213820474911e-12 5.4479027741231108e-12 0.0000000000000000 -18.804221549666405 -110.90595113131390 93.354036648627854 267.24800799435923 0.0000000000000000 0.0000000000000000 0.0000000000000000 0.0000000000000000 3.0085664927154494 3.0171491243037694 1.0085826400441897 1.0043188994071854 65.959591974876560 65.938335132631423 1.0042821771626540 
-33.846648240387047 -104.72114260154869 84.647945399226217 -33.846648240387033 -104.72114260154873 84.647945399226231 -19.675775514616287 2.0055075340465052e-06 -6.0206885952491541e-09 -4.5846712338209618e-06 0.0000000000000000 2.9533791831019195e-09 7.1366526282425308e-09 2.3797946857644720e-06 0.00021357892461890921 -2.7078674999244515e-11 7.3961284993384478e-13 1.3508728183337429e-11 0.0000000000000000 -33.815892125380543 -104.71065599625929 85.007910193808286 270.69679205096202 0.0000000000000000 0.0000000000000000 0.0000000000000000 0.0000000000000000 3.0081507590529193 3.0163178450963115 1.0081670953479043 1.0041969732887541 65.793965442650958 65.800120071998492 1.0040751903839444 
-18.942529120546379 -100.39020442882730 95.076704255560273 -18.942529120546382 -100.39020442882727 95.076704255560287 -17.307851728810338 7.0739969197623982e-07 3.2930808002399086e-08 -1.5981331119035598e-06 0.0000000000000000 8.3845140821589559e-09 2.3833870849143679e-09 2.1533243279581171e-06 0.00020023115010751974 1.6673826467552431e-12 9.1456454636907686e-12 3.9535851657296899e-12 0.0000000000000000 -18.921183722278450 -100.37968114352928 95.398064000337470 185.31956687594098 0.0000000000000000 0.0000000000000000 0.0000000000000000 0.0000000000000000 3.0087064549285993 3.0174288695829663 1.0087224226219587 1.0043299786153188 63.979995869648732 63.981801482174205 1.0043517845004357 
-31.153547066935189 -117.99747681099478 173.12848072166383 -31.153547066935179 -117.99747681099475 173.12848072166383 -19.715492164128214 2.2205178507250330e-06 2.1448184737295183e-06 1.4845003125813359e-06 0.0000000000000000 -8.6393044764275918e-10 -3.3716238012528663e-09 5.7961061132720447e-07 0.00019803438578370580 -2.0668335357548151e-11 -1.8528100727083381e-11 -6.8636425826199534e-12 0.0000000000000000 -31.124431206993112 -117.97934695114738 173.21200361760444 258.17126679857051 0.0000000000000000 0.0000000000000000 0.0000000000000000 0.0000000000000000 3.0085851937665264 3.0171867340579590 1.0086015484076301 1.0043247650164042 67.173991735953905 67.174092391786814 1.0042915713045497 
-30.671986324415396 -133.16180173606344 164.69751917424858 -30.671986324415371 -133.16180173606338 164.69751917424858 -17.626680982226169 2.1328774314888688e-06 -7.7669940423376357e-09 3.7173464031882035e-07 0.0000000000000000 1.2580161825837947e-08 -3.4550882582833595e-09 7.6346709385664808e-07 0.00018597577388849981 -1.9074549481952445e-11 -1.5232333286395913e-12 -1.6127430573829810e-12 0.0000000000000000 -30.642131568542830 -133.13454878399213 164.80820313575899 262.24283076768535 0.0000000000000000 0.0000000000000000 0.0000000000000000 0.0000000000000000 3.0088291787543979 3.0176771032333671 1.0088479359325218 1.0044529461854985 64.564344595974703 64.564534264186719 1.0044142134812801 
-42.716921632707397 -120.12187047280342 163.59622541803836 -42.716921632707425 -120.12187047280347 163.59622541803844 -16.444541428513681 3.4692090818433716e-06 2.2648230114103490e-06 1.5581159278073662e-06 0.0000000000000000 1.4155502008664884e-08 -2.0529422938238620e-08 7.6261849392691966e-07 0.00018319804943428130 -3.6052259092354418e-11 -2.4905296784279656e-11 -1.9979625206205947e-11 0.0000000000000000 -42.676694985445003 -120.10595080876966 163.70375490782192 268.28772502602959 0.0000000000000000 0.0000000000000000 0.0000000000000000 0.0000000000000000 3.0097808626314588 3.0195860894793203 1.0098052441639285 1.0047277301123834 64.466943246159133 64.466956847032577 1.0048906650467655 
-23.772168465838352 -114.25211767703784 161.69095185650050 -23.772168465838366 -114.25211767703784 161.69095185650048 -19.428966729656722 1.0901911378938433e-06 8.0616281693205431e-07 1.5258394484327458e-06 0.0000000000000000 9.7592184099618007e-09 4.1107720005761905e-09 8.1627283121665783e-07 0.00019381175612585277 -1.1982458986299404e-11 -7.5591759647228571e-12 -3.8317081344283348e-12 0.0000000000000000 -23.747323328369049 -114.23396745764113 161.81277151251504 321.01516800445251 0.0000000000000000 0.0000000000000000 0.0000000000000000 0.0000000000000000 3.0084484048624067 3.0169130441451979 1.0084646476865453 1.0042954238216923 66.618818183178689 66.617829299687187 1.0042234221057520 
-6.4757594944267538 -105.00061273234236 109.05200212490001 -6.4757594944267538 -105.00061273234240 109.05200212489999 -13.329071770947413 6.4459708458760822e-08 7.9045142653654415e-08 -2.9475594057185295e-06 -12.117710735169426 4.8359841652023672e-09 2.9578986898703974e-09 1.8728183827088074e-06 0.00017043469444418398 -3.5724362896508913e-13 2.5511004493453681e-13 1.8767320062060713e-11 0.00016222512135660082 -6.4634479885999987 -104.98755276399999 109.33149947120000 327.67017865987640 0.0000000000000000 0.0000000000000000 0.0000000000000000 0.0000000000000000 3.0085738735581211 3.0171651315930537 1.0085912681789946 1.0043327316011395 55.140723135212632 55.139990363512645 1.0042864581704123 
-11.823024770340650 -97.125607617961109 101.13446936219566 -11.823024770340650 -97.125607617961109 101.13446936219566 -16.333088453295058 -3.7941915562489051e-07 5.9177239959091329e-09 -3.2926147181039249e-06 -15.780359259742571 6.3580254281922488e-09 1.9765605402399804e-09 2.0317355673427078e-06 0.00019080981980342025 1.5301808428079125e-12 -3.1988835692483202e-12 1.5021908957834259e-11 0.00018885359024443327 -11.806838433999999 -97.116880539599975 101.43768333439998 212.90238721710071 0.0000000000000000 0.0000000000000000 0.0000000000000000 0.0000000000000000 3.0084963283092505 3.0170090926393942 1.0085127736921551 1.0042843635166852 60.796163812887372 60.794175786571614 1.0042473720308744 
-15.868722641330768 -110.37612040676056 102.79919933281933 -15.868722641330766 -110.37612040676053 102.79919933281934 -14.994652356360136 1.4843422560273538e-06 1.5206426288346672e-08 -6.1487559836808269e-06 0.0000000000000000 7.5095889185902709e-09 3.6277753509561524e-09 1.9983218556562932e-06 0.00018364278371748178 -1.9230027587660751e-11 1.8378231959623949e-13 3.5923590876011264e-11 0.0000000000000000 -15.849604639409371 -110.36010279166017 103.09742667861765 236.22178992679409 0.0000000000000000 0.0000000000000000 0.0000000000000000 0.0000000000000000 3.0085173028559158 3.0170518141223179 1.0085345211637675 1.0043387964010915 59.044744045191095 59.047814562393334 1.0042582000185309 
-23.774425427339366 -99.544270305725021 101.98116921769534 -23.774425427339352 -99.544270305724993 101.98116921769537 -15.218568065002275 1.6278195189585666e-06 2.8488126196877995e-06 -4.0434003455561915e-06 0.0000000000000000 9.7598624572772796e-09 2.2779691119523271e-09 2.0147409850457261e-06 0.00018666860755025161 -1.2670597236264796e-11 -2.8759696761941648e-11 2.6085653175208174e-11 0.0000000000000000 -23.749578654390465 -99.534212460059550 102.28184693721489 211.57004919854941 0.0000000000000000 0.0000000000000000 0.0000000000000000 0.0000000000000000 3.0088368659843052 3.0176927709843491 1.0088559155349348 1.0044383454822965 60.233991192084041 60.233523991876901 1.0044181856852648 
-54.143600602103199 -108.37534738672805 113.57948387758933 -54.143600602103199 -108.37534738672807 113.57948387758934 -10.261321070764872 1.6810081991549444e-06 5.5615219968367828e-06 -3.8011510285746419e-06 0.0000000000000000 1.1256692467930403e-07 -6.8048034004994112e-08 1.7965302709524341e-06 0.00018116408751971802 -1.6544522114618939e-11 -3.4404936074723656e-11 -2.1861601669176500e-11 0.0000000000000000 -54.087034329299712 -108.37170302860723 113.84396407125838 191.01171882188567 0.0000000000000000 0.0000000000000000 0.0000000000000000 0.0000000000000000 3.0111905851346203 3.0224137701904819 1.0112232135706047 1.0054310894874730 58.475002618372031 58.474550484725029 1.0055959539015702 
-41.736728990435402 -107.75343699204169 110.70188219720961 -41.736728990435410 -107.75343699204174 110.70188219720966 -11.851521860656247 -1.0653539751024347e-06 3.6419328142751117e-06 3.1959911208272509e-07 0.0000000000000000 1.1822737344662095e-07 -7.2590640766790388e-08 1.8559541419852447e-06 0.00016913157655357346 1.9978691617126502e-11 -5.6666055561988848e-11 -1.1397806556553622e-11 0.0000000000000000 -41.690910404717421 -107.74885629568415 110.97670241767709 270.34727434602189 0.0000000000000000 0.0000000000000000 0.0000000000000000 0.0000000000000000 3.0103290336958533 3.0206831414311641 1.0103541243070848 1.0051288585299349 60.174374556587296 60.174589339563163 1.0051637340303747 