# vtk DataFile Version 3.0
vtk output
ASCII
DATASET POLYDATA
POINTS 4 float
3 0.5 1
2 0.5 1
-1.13065 -1.29631 -6.07685
-1.13075 -1.29631 -7.16246
LINES 3 9
2 0 1
2 1 2
2 1 3
CELL_DATA 3
scalars Radius float
LOOKUP_TABLE default
1 10000 10 
scalars Flowrate float
LOOKUP_TABLE default
1.57529 0.000659288 1.57463 
POINT_DATA 4
scalars Pressure float
LOOKUP_TABLE default
0 -1.57529 -8.16817 -17.3216 
