# vtk DataFile Version 3.0
vtk output
ASCII
DATASET POLYDATA
POINTS 4 float
3 0.5 1
2 0.5 1
-1.52382 -1.72941 -7.98194
-1.52393 -1.72941 -9.08908
LINES 3 9
2 0 1
2 1 2
2 1 3
CELL_DATA 3
scalars Radius float
LOOKUP_TABLE default
1 10000 10 
scalars Flowrate float
LOOKUP_TABLE default
1.8123 0.000659288 1.81164 
POINT_DATA 4
scalars Pressure float
LOOKUP_TABLE default
0 -1.8123 -8.40519 -19.9287 
