# vtk DataFile Version 3.0
vtk output
ASCII
DATASET POLYDATA
POINTS 4 float
3 0.5 1
2 0.5 1
-7.29421 -8.08563 -40.0985
-7.29433 -8.08563 -41.5686
LINES 3 9
2 0 1
2 1 2
2 1 3
CELL_DATA 3
scalars Radius float
LOOKUP_TABLE default
1 10000 10 
scalars Flowrate float
LOOKUP_TABLE default
4.99723 0.000659288 4.99657 
POINT_DATA 4
scalars Pressure float
LOOKUP_TABLE default
0 -4.99723 -11.5901 -54.963 
