# vtk DataFile Version 3.0
vtk output
ASCII
DATASET POLYDATA
POINTS 4 float
3 0.5 1
2 0.5 1
-1.66383 -1.88363 -8.66801
-1.66394 -1.88363 -9.7829
LINES 3 9
2 0 1
2 1 2
2 1 3
CELL_DATA 3
scalars Radius float
LOOKUP_TABLE default
1 10000 10 
scalars Flowrate float
LOOKUP_TABLE default
1.89492 0.000659288 1.89426 
POINT_DATA 4
scalars Pressure float
LOOKUP_TABLE default
0 -1.89492 -8.48781 -20.8375 
