# vtk DataFile Version 3.0
vtk output
ASCII
DATASET POLYDATA
POINTS 4 float
3 0.5 1
2 0.5 1
-8.883 -9.83573 -50.5737
-8.88313 -9.83573 -52.1621
LINES 3 9
2 0 1
2 1 2
2 1 3
CELL_DATA 3
scalars Radius float
LOOKUP_TABLE default
1 10000 10 
scalars Flowrate float
LOOKUP_TABLE default
5.66147 0.000659288 5.66081 
POINT_DATA 4
scalars Pressure float
LOOKUP_TABLE default
0 -5.66147 -12.2544 -62.2695 
