# vtk DataFile Version 3.0
vtk output
ASCII
DATASET POLYDATA
POINTS 4 float
3 0.5 1
2 0.5 1
-2.59445 -2.90872 -13.334
-2.59456 -2.90872 -14.5016
LINES 3 9
2 0 1
2 1 2
2 1 3
CELL_DATA 3
scalars Radius float
LOOKUP_TABLE default
1 10000 10 
scalars Flowrate float
LOOKUP_TABLE default
2.43137 0.000659288 2.43071 
POINT_DATA 4
scalars Pressure float
LOOKUP_TABLE default
0 -2.43137 -9.02425 -26.7385 
