# vtk DataFile Version 3.0
vtk output
ASCII
DATASET POLYDATA
POINTS 4 float
3 0.5 1
2 0.5 1
-7.06699 -7.83535 -38.6657
-7.06711 -7.83535 -40.1196
LINES 3 9
2 0 1
2 1 2
2 1 3
CELL_DATA 3
scalars Radius float
LOOKUP_TABLE default
1 10000 10 
scalars Flowrate float
LOOKUP_TABLE default
4.88591 0.000659288 4.88525 
POINT_DATA 4
scalars Pressure float
LOOKUP_TABLE default
0 -4.88591 -11.4788 -53.7384 
