# vtk DataFile Version 3.0
vtk output
ASCII
DATASET POLYDATA
POINTS 4 float
3 0.5 1
2 0.5 1
0.5001 0.5 1.5
0.513946 0.513946 0.523684
LINES 3 9
2 0 1
2 1 2
2 1 3
CELL_DATA 3
scalars Radius float
LOOKUP_TABLE default
1 1 1 
scalars Flowrate float
LOOKUP_TABLE default
0.156161 0 0.156161 
POINT_DATA 4
scalars Pressure float
LOOKUP_TABLE default
0 -0.156161 -0.156161 -0.312323 
