# vtk DataFile Version 3.0
vtk output
ASCII
DATASET POLYDATA
POINTS 4 float
3 0.5 1
2 0.5 1
-8.43211 -9.33907 -47.5171
-8.43224 -9.33907 -49.0709
LINES 3 9
2 0 1
2 1 2
2 1 3
CELL_DATA 3
scalars Radius float
LOOKUP_TABLE default
1 10000 10 
scalars Flowrate float
LOOKUP_TABLE default
5.49867 0.000659288 5.49801 
POINT_DATA 4
scalars Pressure float
LOOKUP_TABLE default
0 -5.49867 -12.0916 -60.4788 
