# vtk DataFile Version 3.0
vtk output
ASCII
DATASET POLYDATA
POINTS 4 float
3 0.5 1
2 0.5 1
-4.87064 -5.41601 -25.5807
-4.87076 -5.41601 -26.8867
LINES 3 9
2 0 1
2 1 2
2 1 3
CELL_DATA 3
scalars Radius float
LOOKUP_TABLE default
1 10000 10 
scalars Flowrate float
LOOKUP_TABLE default
3.7129 0.000659288 3.71224 
POINT_DATA 4
scalars Pressure float
LOOKUP_TABLE default
0 -3.7129 -10.3058 -40.8353 
