# vtk DataFile Version 3.0
vtk output
ASCII
DATASET POLYDATA
POINTS 4 float
3 0.5 1
2 0.5 1
-9.54735 -10.5675 -55.2057
-9.54748 -10.5675 -56.8464
LINES 3 9
2 0 1
2 1 2
2 1 3
CELL_DATA 3
scalars Radius float
LOOKUP_TABLE default
1 10000 10 
scalars Flowrate float
LOOKUP_TABLE default
5.84692 0.000659288 5.84626 
POINT_DATA 4
scalars Pressure float
LOOKUP_TABLE default
0 -5.84692 -12.4398 -64.3095 
