# vtk DataFile Version 3.0
vtk output
ASCII
DATASET POLYDATA
POINTS 4 float
3 0.5 1
2 0.5 1
-2.76409 -3.09559 -14.2049
-2.7642 -3.09559 -15.3824
LINES 3 9
2 0 1
2 1 2
2 1 3
CELL_DATA 3
scalars Radius float
LOOKUP_TABLE default
1 10000 10 
scalars Flowrate float
LOOKUP_TABLE default
2.52779 0.000659288 2.52713 
POINT_DATA 4
scalars Pressure float
LOOKUP_TABLE default
0 -2.52779 -9.12068 -27.7991 
