# vtk DataFile Version 3.0
vtk output
ASCII
DATASET POLYDATA
POINTS 4 float
3 0.5 1
2 0.5 1
-4.05755 -4.52037 -21.0628
-4.05767 -4.52037 -22.3177
LINES 3 9
2 0 1
2 1 2
2 1 3
CELL_DATA 3
scalars Radius float
LOOKUP_TABLE default
1 10000 10 
scalars Flowrate float
LOOKUP_TABLE default
3.25792 0.000659288 3.25727 
POINT_DATA 4
scalars Pressure float
LOOKUP_TABLE default
0 -3.25792 -9.85081 -35.8306 
