# vtk DataFile Version 3.0
vtk output
ASCII
DATASET POLYDATA
POINTS 4 float
3 0.5 1
2 0.5 1
-7.5219 -8.33644 -41.5502
-7.52202 -8.33644 -43.0366
LINES 3 9
2 0 1
2 1 2
2 1 3
CELL_DATA 3
scalars Radius float
LOOKUP_TABLE default
1 10000 10 
scalars Flowrate float
LOOKUP_TABLE default
5.10567 0.000659288 5.10501 
POINT_DATA 4
scalars Pressure float
LOOKUP_TABLE default
0 -5.10567 -11.6986 -56.1558 
