# vtk DataFile Version 3.0
vtk output
ASCII
DATASET POLYDATA
POINTS 4 float
3 0.5 1
2 0.5 1
-3.48144 -3.88577 -17.9599
-3.48155 -3.88577 -19.1798
LINES 3 9
2 0 1
2 1 2
2 1 3
CELL_DATA 3
scalars Radius float
LOOKUP_TABLE default
1 10000 10 
scalars Flowrate float
LOOKUP_TABLE default
2.93356 0.000659288 2.9329 
POINT_DATA 4
scalars Pressure float
LOOKUP_TABLE default
0 -2.93356 -9.52645 -32.2626 
