# vtk DataFile Version 3.0
vtk output
ASCII
DATASET POLYDATA
POINTS 4 float
3 0.5 1
2 0.5 1
-3.8621 -4.30507 -20.0011
-3.86221 -4.30507 -21.2441
LINES 3 9
2 0 1
2 1 2
2 1 3
CELL_DATA 3
scalars Radius float
LOOKUP_TABLE default
1 10000 10 
scalars Flowrate float
LOOKUP_TABLE default
3.14802 0.000659288 3.14736 
POINT_DATA 4
scalars Pressure float
LOOKUP_TABLE default
0 -3.14802 -9.7409 -34.6216 
