# vtk DataFile Version 3.0
vtk output
ASCII
DATASET POLYDATA
POINTS 4 float
3 0.5 1
2 0.5 1
0.5001 0.5 2.13963
0.5 0.5 0.71524
LINES 3 9
2 0 1
2 1 2
2 1 3
CELL_DATA 3
scalars Radius float
LOOKUP_TABLE default
1 10000 10 
scalars Flowrate float
LOOKUP_TABLE default
1.92908 0.0212011 1.90788 
POINT_DATA 4
scalars Pressure float
LOOKUP_TABLE default
0 -1.92908 -213.94 -21.0079 
