# vtk DataFile Version 3.0
vtk output
ASCII
DATASET POLYDATA
POINTS 4 float
3 0.5 1
2 0.5 1
-9.32791 -10.3258 -53.6584
-9.32804 -10.3258 -55.2817
LINES 3 9
2 0 1
2 1 2
2 1 3
CELL_DATA 3
scalars Radius float
LOOKUP_TABLE default
1 10000 10 
scalars Flowrate float
LOOKUP_TABLE default
5.79399 0.000659288 5.79333 
POINT_DATA 4
scalars Pressure float
LOOKUP_TABLE default
0 -5.79399 -12.3869 -63.7272 
