# vtk DataFile Version 3.0
vtk output
ASCII
DATASET POLYDATA
POINTS 4 float
3 0.5 1
2 0.5 1
0.5001 0.5 1.72632
0.5 0.5 0.576327
LINES 3 9
2 0 1
2 1 2
2 1 3
CELL_DATA 3
scalars Radius float
LOOKUP_TABLE default
1 10000 10 
scalars Flowrate float
LOOKUP_TABLE default
0.86815 0.00129585 0.866854 
POINT_DATA 4
scalars Pressure float
LOOKUP_TABLE default
0 -0.86815 -13.8266 -9.53669 
