# vtk DataFile Version 3.0
vtk output
ASCII
DATASET POLYDATA
POINTS 4 float
3 0.5 1
2 0.5 1
-5.08103 -5.64776 -26.7771
-5.08115 -5.64776 -28.0966
LINES 3 9
2 0 1
2 1 2
2 1 3
CELL_DATA 3
scalars Radius float
LOOKUP_TABLE default
1 10000 10 
scalars Flowrate float
LOOKUP_TABLE default
3.82975 0.000659288 3.82909 
POINT_DATA 4
scalars Pressure float
LOOKUP_TABLE default
0 -3.82975 -10.4226 -42.1206 
