# vtk DataFile Version 3.0
vtk output
ASCII
DATASET POLYDATA
POINTS 4 float
3 0.5 1
2 0.5 1
-9.76435 -10.8066 -56.7528
-9.76448 -10.8066 -58.411
LINES 3 9
2 0 1
2 1 2
2 1 3
CELL_DATA 3
scalars Radius float
LOOKUP_TABLE default
1 10000 10 
scalars Flowrate float
LOOKUP_TABLE default
5.88989 0.000659288 5.88923 
POINT_DATA 4
scalars Pressure float
LOOKUP_TABLE default
0 -5.88989 -12.4828 -64.7822 
