# vtk DataFile Version 3.0
vtk output
ASCII
DATASET POLYDATA
POINTS 4 float
3 0.5 1
2 0.5 1
-2.26737 -2.54844 -11.6728
-2.26748 -2.54844 -12.8216
LINES 3 9
2 0 1
2 1 2
2 1 3
CELL_DATA 3
scalars Radius float
LOOKUP_TABLE default
1 10000 10 
scalars Flowrate float
LOOKUP_TABLE default
2.2446 0.000659288 2.24394 
POINT_DATA 4
scalars Pressure float
LOOKUP_TABLE default
0 -2.2446 -8.83748 -24.684 
