# vtk DataFile Version 3.0
vtk output
ASCII
DATASET POLYDATA
POINTS 4 float
3 0.5 1
2 0.5 1
-5.50927 -6.11948 -29.2483
-5.50939 -6.11948 -30.5958
LINES 3 9
2 0 1
2 1 2
2 1 3
CELL_DATA 3
scalars Radius float
LOOKUP_TABLE default
1 10000 10 
scalars Flowrate float
LOOKUP_TABLE default
4.06578 0.000659288 4.06512 
POINT_DATA 4
scalars Pressure float
LOOKUP_TABLE default
0 -4.06578 -10.6587 -44.717 
