# vtk DataFile Version 3.0
vtk output
ASCII
DATASET POLYDATA
POINTS 4 float
3 0.5 1
2 0.5 1
-3.11518 -3.48232 -16.0279
-3.11529 -3.48232 -17.226
LINES 3 9
2 0 1
2 1 2
2 1 3
CELL_DATA 3
scalars Radius float
LOOKUP_TABLE default
1 10000 10 
scalars Flowrate float
LOOKUP_TABLE default
2.72671 0.000659288 2.72605 
POINT_DATA 4
scalars Pressure float
LOOKUP_TABLE default
0 -2.72671 -9.31959 -29.9872 
