# vtk DataFile Version 3.0
vtk output
ASCII
DATASET POLYDATA
POINTS 4 float
3 0.5 1
2 0.5 1
0.5001 0.5 1.98917
0.5 0.5 0.664171
LINES 3 9
2 0 1
2 1 2
2 1 3
CELL_DATA 3
scalars Radius float
LOOKUP_TABLE default
1 10000 10 
scalars Flowrate float
LOOKUP_TABLE default
1.12076 0.00467928 1.11608 
POINT_DATA 4
scalars Pressure float
LOOKUP_TABLE default
0 -1.12076 -47.9136 -12.2816 
