# vtk DataFile Version 3.0
vtk output
ASCII
DATASET POLYDATA
POINTS 4 float
3 0.5 1
2 0.5 1
-9.97858 -11.0425 -58.2972
-9.97872 -11.0425 -59.9729
LINES 3 9
2 0 1
2 1 2
2 1 3
CELL_DATA 3
scalars Radius float
LOOKUP_TABLE default
1 10000 10 
scalars Flowrate float
LOOKUP_TABLE default
5.92207 0.000659288 5.92141 
POINT_DATA 4
scalars Pressure float
LOOKUP_TABLE default
0 -5.92207 -12.515 -65.1362 
