# vtk DataFile Version 3.0
vtk output
ASCII
DATASET POLYDATA
POINTS 4 float
3 0.5 1
2 0.5 1
-3.67002 -4.0935 -18.9668
-3.67013 -4.0935 -20.1981
LINES 3 9
2 0 1
2 1 2
2 1 3
CELL_DATA 3
scalars Radius float
LOOKUP_TABLE default
1 10000 10 
scalars Flowrate float
LOOKUP_TABLE default
3.03987 0.000659288 3.03921 
POINT_DATA 4
scalars Pressure float
LOOKUP_TABLE default
0 -3.03987 -9.63275 -33.432 
