# vtk DataFile Version 3.0
vtk output
ASCII
DATASET POLYDATA
POINTS 4 float
3 0.5 1
2 0.5 1
-5.29396 -5.88231 -27.9998
-5.29408 -5.88231 -29.3331
LINES 3 9
2 0 1
2 1 2
2 1 3
CELL_DATA 3
scalars Radius float
LOOKUP_TABLE default
1 10000 10 
scalars Flowrate float
LOOKUP_TABLE default
3.94745 0.000659288 3.94679 
POINT_DATA 4
scalars Pressure float
LOOKUP_TABLE default
0 -3.94745 -10.5403 -43.4154 
