# vtk DataFile Version 3.0
vtk output
ASCII
DATASET POLYDATA
POINTS 4 float
3 0.5 1
2 0.5 1
-6.16763 -6.84468 -33.1445
-6.16775 -6.84468 -34.5359
LINES 3 9
2 0 1
2 1 2
2 1 3
CELL_DATA 3
scalars Radius float
LOOKUP_TABLE default
1 10000 10 
scalars Flowrate float
LOOKUP_TABLE default
4.4218 0.000659288 4.42114 
POINT_DATA 4
scalars Pressure float
LOOKUP_TABLE default
0 -4.4218 -11.0147 -48.6332 
