# vtk DataFile Version 3.0
vtk output
ASCII
DATASET POLYDATA
POINTS 4 float
3 0.5 1
2 0.5 1
-9.10636 -10.0818 -52.1137
-9.10648 -10.0818 -53.7195
LINES 3 9
2 0 1
2 1 2
2 1 3
CELL_DATA 3
scalars Radius float
LOOKUP_TABLE default
1 10000 10 
scalars Flowrate float
LOOKUP_TABLE default
5.7319 0.000659288 5.73124 
POINT_DATA 4
scalars Pressure float
LOOKUP_TABLE default
0 -5.7319 -12.3248 -63.0443 
