# vtk DataFile Version 3.0
vtk output
ASCII
DATASET POLYDATA
POINTS 4 float
3 0.5 1
2 0.5 1
-5.94629 -6.60087 -31.8212
-5.94641 -6.60087 -33.1978
LINES 3 9
2 0 1
2 1 2
2 1 3
CELL_DATA 3
scalars Radius float
LOOKUP_TABLE default
1 10000 10 
scalars Flowrate float
LOOKUP_TABLE default
4.30326 0.000659288 4.3026 
POINT_DATA 4
scalars Pressure float
LOOKUP_TABLE default
0 -4.30326 -10.8961 -47.3293 
