# vtk DataFile Version 3.0
vtk output
ASCII
DATASET POLYDATA
POINTS 4 float
3 0.5 1
2 0.5 1
-5.72678 -6.35907 -30.5223
-5.72689 -6.35907 -31.8842
LINES 3 9
2 0 1
2 1 2
2 1 3
CELL_DATA 3
scalars Radius float
LOOKUP_TABLE default
1 10000 10 
scalars Flowrate float
LOOKUP_TABLE default
4.18449 0.000659288 4.18383 
POINT_DATA 4
scalars Pressure float
LOOKUP_TABLE default
0 -4.18449 -10.7774 -46.0227 
