# vtk DataFile Version 3.0
vtk output
ASCII
DATASET POLYDATA
POINTS 4 float
3 0.5 1
2 0.5 1
-1.38826 -1.58008 -7.32152
-1.38837 -1.58008 -8.4212
LINES 3 9
2 0 1
2 1 2
2 1 3
CELL_DATA 3
scalars Radius float
LOOKUP_TABLE default
1 10000 10 
scalars Flowrate float
LOOKUP_TABLE default
1.73152 0.000659288 1.73086 
POINT_DATA 4
scalars Pressure float
LOOKUP_TABLE default
0 -1.73152 -8.32441 -19.0402 
