# vtk DataFile Version 3.0
vtk output
ASCII
DATASET POLYDATA
POINTS 4 float
3 0.5 1
2 0.5 1
0.5001 0.5 2.02684
0.5 0.5 0.677188
LINES 3 9
2 0 1
2 1 2
2 1 3
CELL_DATA 3
scalars Radius float
LOOKUP_TABLE default
1 10000 10 
scalars Flowrate float
LOOKUP_TABLE default
2.04366 0.0217743 2.02189 
POINT_DATA 4
scalars Pressure float
LOOKUP_TABLE default
0 -2.04366 -219.787 -22.2625 
