# vtk DataFile Version 3.0
vtk output
ASCII
DATASET POLYDATA
POINTS 3 float
3 0.5 1
2 0.5 1
1 0.5 1.475
LINES 2 6
2 0 1
2 1 2
CELL_DATA 2
scalars Radius float
LOOKUP_TABLE default
1 1 
scalars Flowrate float
LOOKUP_TABLE default
1 1 
POINT_DATA 3
scalars Pressure float
LOOKUP_TABLE default
0 -1 -2 
