# vtk DataFile Version 3.0
vtk output
ASCII
DATASET POLYDATA
POINTS 4 float
3 0.5 1
2 0.5 1
-2.11006 -2.37516 -10.8821
-2.11017 -2.37516 -12.022
LINES 3 9
2 0 1
2 1 2
2 1 3
CELL_DATA 3
scalars Radius float
LOOKUP_TABLE default
1 10000 10 
scalars Flowrate float
LOOKUP_TABLE default
2.15423 0.000659288 2.15357 
POINT_DATA 4
scalars Pressure float
LOOKUP_TABLE default
0 -2.15423 -8.74711 -23.69 
