# vtk DataFile Version 3.0
vtk output
ASCII
DATASET POLYDATA
POINTS 4 float
3 0.5 1
2 0.5 1
-6.61494 -7.33741 -35.8611
-6.61507 -7.33741 -37.2833
LINES 3 9
2 0 1
2 1 2
2 1 3
CELL_DATA 3
scalars Radius float
LOOKUP_TABLE default
1 10000 10 
scalars Flowrate float
LOOKUP_TABLE default
4.65669 0.000659288 4.65603 
POINT_DATA 4
scalars Pressure float
LOOKUP_TABLE default
0 -4.65669 -11.2496 -51.217 
