# vtk DataFile Version 3.0
vtk output
ASCII
DATASET POLYDATA
POINTS 4 float
3 0.5 1
2 0.5 1
-1.80824 -2.0427 -9.37993
-1.80835 -2.0427 -10.5029
LINES 3 9
2 0 1
2 1 2
2 1 3
CELL_DATA 3
scalars Radius float
LOOKUP_TABLE default
1 10000 10 
scalars Flowrate float
LOOKUP_TABLE default
1.97942 0.000659288 1.97876 
POINT_DATA 4
scalars Pressure float
LOOKUP_TABLE default
0 -1.97942 -8.57231 -21.7671 
