# vtk DataFile Version 3.0
vtk output
ASCII
DATASET POLYDATA
POINTS 4 float
3 0.5 1
2 0.5 1
-6.39058 -7.09027 -34.4914
-6.39071 -7.09027 -35.898
LINES 3 9
2 0 1
2 1 2
2 1 3
CELL_DATA 3
scalars Radius float
LOOKUP_TABLE default
1 10000 10 
scalars Flowrate float
LOOKUP_TABLE default
4.53974 0.000659288 4.53908 
POINT_DATA 4
scalars Pressure float
LOOKUP_TABLE default
0 -4.53974 -11.1326 -49.9305 
