# vtk DataFile Version 3.0
vtk output
ASCII
DATASET POLYDATA
POINTS 4 float
3 0.5 1
2 0.5 1
0.5001 0.5 2.10205
0.5 0.5 0.702621
LINES 3 9
2 0 1
2 1 2
2 1 3
CELL_DATA 3
scalars Radius float
LOOKUP_TABLE default
1 10000 10 
scalars Flowrate float
LOOKUP_TABLE default
1.96514 0.0214268 1.94372 
POINT_DATA 4
scalars Pressure float
LOOKUP_TABLE default
0 -1.96514 -216.233 -21.4023 
