# vtk DataFile Version 3.0
vtk output
ASCII
DATASET POLYDATA
POINTS 4 float
3 0.5 1
2 0.5 1
-8.65815 -9.58805 -49.0408
-8.65828 -9.58805 -50.6119
LINES 3 9
2 0 1
2 1 2
2 1 3
CELL_DATA 3
scalars Radius float
LOOKUP_TABLE default
1 10000 10 
scalars Flowrate float
LOOKUP_TABLE default
5.58347 0.000659288 5.58281 
POINT_DATA 4
scalars Pressure float
LOOKUP_TABLE default
0 -5.58347 -12.1764 -61.4116 
