# vtk DataFile Version 3.0
vtk output
ASCII
DATASET POLYDATA
POINTS 4 float
3 0.5 1
2 0.5 1
-2.42885 -2.72632 -12.49
-2.42896 -2.72632 -13.6481
LINES 3 9
2 0 1
2 1 2
2 1 3
CELL_DATA 3
scalars Radius float
LOOKUP_TABLE default
1 10000 10 
scalars Flowrate float
LOOKUP_TABLE default
2.33697 0.000659288 2.33631 
POINT_DATA 4
scalars Pressure float
LOOKUP_TABLE default
0 -2.33697 -8.92986 -25.7001 
