# vtk DataFile Version 3.0
vtk output
ASCII
DATASET POLYDATA
POINTS 4 float
3 0.5 1
2 0.5 1
-2.93769 -3.28682 -15.1029
-2.9378 -3.28682 -16.2905
LINES 3 9
2 0 1
2 1 2
2 1 3
CELL_DATA 3
scalars Radius float
LOOKUP_TABLE default
1 10000 10 
scalars Flowrate float
LOOKUP_TABLE default
2.62624 0.000659288 2.62558 
POINT_DATA 4
scalars Pressure float
LOOKUP_TABLE default
0 -2.62624 -9.21913 -28.8821 
