# vtk DataFile Version 3.0
vtk output
ASCII
DATASET POLYDATA
POINTS 3 float
0 0 -1
0 0 -5.66858e-19
-3.62699e-06 1.09363e-05 0.510214
LINES 2 6
2 0 1
2 1 2
CELL_DATA 2
scalars Radius float
LOOKUP_TABLE default
1 0.0001 
scalars Flowrate float
LOOKUP_TABLE default
0.25725 0.25725 
POINT_DATA 3
scalars Pressure float
LOOKUP_TABLE default
0 -0.25725 -0.257276 
