# vtk DataFile Version 3.0
vtk output
ASCII
DATASET POLYDATA
POINTS 3 float
0 0 -1
0 0 -1.28033e-18
-2.98647e-05 0.000109629 0.523084
LINES 2 6
2 0 1
2 1 2
CELL_DATA 2
scalars Radius float
LOOKUP_TABLE default
1 1e+14 
scalars Flowrate float
LOOKUP_TABLE default
5.69707e-13 5.69707e-13 
POINT_DATA 3
scalars Pressure float
LOOKUP_TABLE default
0 -5.69707e-13 -56.9707 
