# vtk DataFile Version 3.0
vtk output
ASCII
DATASET POLYDATA
POINTS 3 float
0 0 -1
0 0 -2.5033e-18
-2.96007e-05 0.0001777 0.545103
LINES 2 6
2 0 1
2 1 2
CELL_DATA 2
scalars Radius float
LOOKUP_TABLE default
1 1e+14 
scalars Flowrate float
LOOKUP_TABLE default
1.08284e-12 1.08284e-12 
POINT_DATA 3
scalars Pressure float
LOOKUP_TABLE default
0 -1.08284e-12 -108.284 
