# vtk DataFile Version 3.0
vtk output
ASCII
DATASET POLYDATA
POINTS 3 float
0 0 -1
0 0 -3.29218e-19
-0.000305402 0.000107899 0.505973
LINES 2 6
2 0 1
2 1 2
CELL_DATA 2
scalars Radius float
LOOKUP_TABLE default
0.0001 0.0001 
scalars Flowrate float
LOOKUP_TABLE default
0.0557683 0.0557683 
POINT_DATA 3
scalars Pressure float
LOOKUP_TABLE default
0 -5.57683e-06 -1.11537e-05 
