# vtk DataFile Version 3.0
vtk output
ASCII
DATASET POLYDATA
POINTS 3 float
0 0 -1
0 0 -3.13038e-18
-1.63798e-05 0.000196571 0.556382
LINES 2 6
2 0 1
2 1 2
CELL_DATA 2
scalars Radius float
LOOKUP_TABLE default
1 100000 
scalars Flowrate float
LOOKUP_TABLE default
0.00132694 0.00132694 
POINT_DATA 3
scalars Pressure float
LOOKUP_TABLE default
0 -0.00132694 -132.695 
