# vtk DataFile Version 3.0
vtk output
ASCII
DATASET POLYDATA
POINTS 3 float
0 0 -1
0 0 -3.13271e-18
-1.8799e-05 0.00019915 0.556425
LINES 2 6
2 0 1
2 1 2
CELL_DATA 2
scalars Radius float
LOOKUP_TABLE default
1 1e+14 
scalars Flowrate float
LOOKUP_TABLE default
1.33751e-12 1.33751e-12 
POINT_DATA 3
scalars Pressure float
LOOKUP_TABLE default
0 -1.33751e-12 -133.751 
