# vtk DataFile Version 3.0
vtk output
ASCII
DATASET POLYDATA
POINTS 3 float
0 0 -1
0 0 -1.4173e-18
-7.79439e-06 2.57862e-05 0.525538
LINES 2 6
2 0 1
2 1 2
CELL_DATA 2
scalars Radius float
LOOKUP_TABLE default
1 1 
scalars Flowrate float
LOOKUP_TABLE default
0.254276 0.254276 
POINT_DATA 3
scalars Pressure float
LOOKUP_TABLE default
0 -0.254276 -0.508551 
