# vtk DataFile Version 3.0
vtk output
ASCII
DATASET POLYDATA
POINTS 3 float
0 0 -1
0 0 -1.12387e-18
-2.78064e-05 9.82549e-05 0.520265
LINES 2 6
2 0 1
2 1 2
CELL_DATA 2
scalars Radius float
LOOKUP_TABLE default
1 1e+14 
scalars Flowrate float
LOOKUP_TABLE default
5.01797e-13 5.01797e-13 
POINT_DATA 3
scalars Pressure float
LOOKUP_TABLE default
0 -5.01797e-13 -50.1797 
