# vtk DataFile Version 3.0
vtk output
ASCII
DATASET POLYDATA
POINTS 3 float
0 0 -1
0 0 -2.83651e-19
-1.96217e-06 5.78111e-06 0.505111
LINES 2 6
2 0 1
2 1 2
CELL_DATA 2
scalars Radius float
LOOKUP_TABLE default
1 0.0001 
scalars Flowrate float
LOOKUP_TABLE default
0.253684 0.253684 
POINT_DATA 3
scalars Pressure float
LOOKUP_TABLE default
0 -0.253684 -0.253709 
