# vtk DataFile Version 3.0
vtk output
ASCII
DATASET POLYDATA
POINTS 3 float
0 0 -1
0 0 -2.25193e-18
-3.1731e-05 0.000166551 0.54058
LINES 2 6
2 0 1
2 1 2
CELL_DATA 2
scalars Radius float
LOOKUP_TABLE default
1 1e+14 
scalars Flowrate float
LOOKUP_TABLE default
9.79272e-13 9.79272e-13 
POINT_DATA 3
scalars Pressure float
LOOKUP_TABLE default
0 -9.79272e-13 -97.9272 
