# vtk DataFile Version 3.0
vtk output
ASCII
DATASET POLYDATA
POINTS 3 float
0 0 -1
0 0 -1.21774e-18
-2.90986e-05 0.000105144 0.521956
LINES 2 6
2 0 1
2 1 2
CELL_DATA 2
scalars Radius float
LOOKUP_TABLE default
1 1e+14 
scalars Flowrate float
LOOKUP_TABLE default
5.42594e-13 5.42594e-13 
POINT_DATA 3
scalars Pressure float
LOOKUP_TABLE default
0 -5.42594e-13 -54.2594 
