# vtk DataFile Version 3.0
vtk output
ASCII
DATASET POLYDATA
POINTS 3 float
0 0 -1
0 0 -2.84144e-19
-2.10224e-06 6.21724e-06 0.50512
LINES 2 6
2 0 1
2 1 2
CELL_DATA 2
scalars Radius float
LOOKUP_TABLE default
1 1 
scalars Flowrate float
LOOKUP_TABLE default
0.249145 0.249145 
POINT_DATA 3
scalars Pressure float
LOOKUP_TABLE default
0 -0.249145 -0.49829 
