# vtk DataFile Version 3.0
vtk output
ASCII
DATASET POLYDATA
POINTS 3 float
0 0 -1
0 0 -2.37759e-18
-3.08153e-05 0.000172308 0.542841
LINES 2 6
2 0 1
2 1 2
CELL_DATA 2
scalars Radius float
LOOKUP_TABLE default
1 1e+14 
scalars Flowrate float
LOOKUP_TABLE default
1.03118e-12 1.03118e-12 
POINT_DATA 3
scalars Pressure float
LOOKUP_TABLE default
0 -1.03118e-12 -103.118 
