# vtk DataFile Version 3.0
vtk output
ASCII
DATASET POLYDATA
POINTS 3 float
0 0 -1
0 0 -1.37396e-18
-3.02987e-05 0.000115693 0.524771
LINES 2 6
2 0 1
2 1 2
CELL_DATA 2
scalars Radius float
LOOKUP_TABLE default
1 1e+14 
scalars Flowrate float
LOOKUP_TABLE default
6.08813e-13 6.08813e-13 
POINT_DATA 3
scalars Pressure float
LOOKUP_TABLE default
0 -6.08813e-13 -60.8813 
