# vtk DataFile Version 3.0
vtk output
ASCII
DATASET POLYDATA
POINTS 3 float
0 0 -1
0 0 -1.24903e-18
-2.94912e-05 0.000107398 0.52252
LINES 2 6
2 0 1
2 1 2
CELL_DATA 2
scalars Radius float
LOOKUP_TABLE default
1 1e+14 
scalars Flowrate float
LOOKUP_TABLE default
5.56159e-13 5.56159e-13 
POINT_DATA 3
scalars Pressure float
LOOKUP_TABLE default
0 -5.56159e-13 -55.6159 
