# vtk DataFile Version 3.0
vtk output
ASCII
DATASET POLYDATA
POINTS 3 float
0 0 -1
0 0 -2.74896e-19
-0.000263496 9.01025e-05 0.504991
LINES 2 6
2 0 1
2 1 2
CELL_DATA 2
scalars Radius float
LOOKUP_TABLE default
1 100000 
scalars Flowrate float
LOOKUP_TABLE default
0.279455 0.279455 
POINT_DATA 3
scalars Pressure float
LOOKUP_TABLE default
0 -0.279455 -27945.7 
