# vtk DataFile Version 3.0
vtk output
ASCII
DATASET POLYDATA
POINTS 3 float
0 0 -1
0 0 -2.50161e-18
-2.7638e-05 0.000175578 0.545072
LINES 2 6
2 0 1
2 1 2
CELL_DATA 2
scalars Radius float
LOOKUP_TABLE default
1 100000 
scalars Flowrate float
LOOKUP_TABLE default
0.00107495 0.00107495 
POINT_DATA 3
scalars Pressure float
LOOKUP_TABLE default
0 -0.00107495 -107.496 
