# vtk DataFile Version 3.0
vtk output
ASCII
DATASET POLYDATA
POINTS 3 float
0 0 -1
0 0 -1.56095e-18
-3.04133e-05 0.000126837 0.528139
LINES 2 6
2 0 1
2 1 2
CELL_DATA 2
scalars Radius float
LOOKUP_TABLE default
1 100000 
scalars Flowrate float
LOOKUP_TABLE default
0.000684858 0.000684858 
POINT_DATA 3
scalars Pressure float
LOOKUP_TABLE default
0 -0.000684858 -68.4865 
