# vtk DataFile Version 3.0
vtk output
ASCII
DATASET POLYDATA
POINTS 3 float
0 0 -1
0 0 -1.49921e-18
-3.13329e-05 0.000124092 0.527027
LINES 2 6
2 0 1
2 1 2
CELL_DATA 2
scalars Radius float
LOOKUP_TABLE default
1 1e+14 
scalars Flowrate float
LOOKUP_TABLE default
6.6251e-13 6.6251e-13 
POINT_DATA 3
scalars Pressure float
LOOKUP_TABLE default
0 -6.6251e-13 -66.251 
