# vtk DataFile Version 3.0
vtk output
ASCII
DATASET POLYDATA
POINTS 3 float
0 0 -1
0 0 -1.06131e-18
-2.68498e-05 9.35533e-05 0.519138
LINES 2 6
2 0 1
2 1 2
CELL_DATA 2
scalars Radius float
LOOKUP_TABLE default
1 1e+14 
scalars Flowrate float
LOOKUP_TABLE default
4.74514e-13 4.74514e-13 
POINT_DATA 3
scalars Pressure float
LOOKUP_TABLE default
0 -4.74514e-13 -47.4514 
