# vtk DataFile Version 3.0
vtk output
ASCII
DATASET POLYDATA
POINTS 3 float
0 0 -1
0 0 -1.87531e-18
-3.27647e-05 0.000147021 0.5338
LINES 2 6
2 0 1
2 1 2
CELL_DATA 2
scalars Radius float
LOOKUP_TABLE default
1 1e+14 
scalars Flowrate float
LOOKUP_TABLE default
8.22037e-13 8.22037e-13 
POINT_DATA 3
scalars Pressure float
LOOKUP_TABLE default
0 -8.22037e-13 -82.2037 
