# vtk DataFile Version 3.0
vtk output
ASCII
DATASET POLYDATA
POINTS 3 float
0 0 -1
0 0 -2.26712e-18
-1.01592e-05 3.83253e-05 0.540849
LINES 2 6
2 0 1
2 1 2
CELL_DATA 2
scalars Radius float
LOOKUP_TABLE default
1 0.0001 
scalars Flowrate float
LOOKUP_TABLE default
0.251349 0.251349 
POINT_DATA 3
scalars Pressure float
LOOKUP_TABLE default
0 -0.251349 -0.251374 
