# vtk DataFile Version 3.0
vtk output
ASCII
DATASET POLYDATA
POINTS 3 float
0 0 -1
0 0 0
2.23424e-05 -0.000236371 0.509158
LINES 2 6
2 0 1
2 1 2
CELL_DATA 2
scalars Radius float
LOOKUP_TABLE default
0.0001 0.0001 
scalars Flowrate float
LOOKUP_TABLE default
0.170514 0.170514 
POINT_DATA 3
scalars Pressure float
LOOKUP_TABLE default
0 -1.70514e-05 -3.41028e-05 
