# vtk DataFile Version 3.0
vtk output
ASCII
DATASET POLYDATA
POINTS 3 float
0 0 -1
0 0 -1.24808e-18
-2.79067e-05 0.000105898 0.522503
LINES 2 6
2 0 1
2 1 2
CELL_DATA 2
scalars Radius float
LOOKUP_TABLE default
1 100000 
scalars Flowrate float
LOOKUP_TABLE default
0.000551471 0.000551471 
POINT_DATA 3
scalars Pressure float
LOOKUP_TABLE default
0 -0.000551471 -55.1476 
