# vtk DataFile Version 3.0
vtk output
ASCII
DATASET POLYDATA
POINTS 3 float
0 0 -1
0 0 -9.36236e-19
-2.47092e-05 8.38883e-05 0.516883
LINES 2 6
2 0 1
2 1 2
CELL_DATA 2
scalars Radius float
LOOKUP_TABLE default
1 1e+14 
scalars Flowrate float
LOOKUP_TABLE default
4.19744e-13 4.19744e-13 
POINT_DATA 3
scalars Pressure float
LOOKUP_TABLE default
0 -4.19744e-13 -41.9744 
