# vtk DataFile Version 3.0
vtk output
ASCII
DATASET POLYDATA
POINTS 3 float
0 0 -1
0 0 -5.17698e-19
-0.00406457 -0.000230875 0.512994
LINES 2 6
2 0 1
2 1 2
CELL_DATA 2
scalars Radius float
LOOKUP_TABLE default
1 100000 
scalars Flowrate float
LOOKUP_TABLE default
0.309947 0.309947 
POINT_DATA 3
scalars Pressure float
LOOKUP_TABLE default
0 -0.309947 -30995 
