# vtk DataFile Version 3.0
vtk output
ASCII
DATASET POLYDATA
POINTS 3 float
0 0 -1
0 0 -2.81583e-18
-2.30086e-05 0.000187253 0.550725
LINES 2 6
2 0 1
2 1 2
CELL_DATA 2
scalars Radius float
LOOKUP_TABLE default
1 100000 
scalars Flowrate float
LOOKUP_TABLE default
0.00120173 0.00120173 
POINT_DATA 3
scalars Pressure float
LOOKUP_TABLE default
0 -0.00120173 -120.174 
