# vtk DataFile Version 3.0
vtk output
ASCII
DATASET POLYDATA
POINTS 3 float
0 0 -1
0 0 -8.50109e-19
-5.13962e-06 1.59111e-05 0.515318
LINES 2 6
2 0 1
2 1 2
CELL_DATA 2
scalars Radius float
LOOKUP_TABLE default
1 0.0001 
scalars Flowrate float
LOOKUP_TABLE default
0.256322 0.256322 
POINT_DATA 3
scalars Pressure float
LOOKUP_TABLE default
0 -0.256322 -0.256348 
