# vtk DataFile Version 3.0
vtk output
ASCII
DATASET POLYDATA
POINTS 3 float
0 0 -1
0 0 -9.98766e-19
-2.5817e-05 8.87639e-05 0.51801
LINES 2 6
2 0 1
2 1 2
CELL_DATA 2
scalars Radius float
LOOKUP_TABLE default
1 1e+14 
scalars Flowrate float
LOOKUP_TABLE default
4.47163e-13 4.47163e-13 
POINT_DATA 3
scalars Pressure float
LOOKUP_TABLE default
0 -4.47163e-13 -44.7163 
