# vtk DataFile Version 3.0
vtk output
ASCII
DATASET POLYDATA
POINTS 3 float
0 0 -1
0 0 -8.42468e-19
-2.2916e-05 7.64142e-05 0.515193
LINES 2 6
2 0 1
2 1 2
CELL_DATA 2
scalars Radius float
LOOKUP_TABLE default
1 1e+14 
scalars Flowrate float
LOOKUP_TABLE default
3.78487e-13 3.78487e-13 
POINT_DATA 3
scalars Pressure float
LOOKUP_TABLE default
0 -3.78487e-13 -37.8487 
