# vtk DataFile Version 3.0
vtk output
ASCII
DATASET POLYDATA
POINTS 3 float
0 0 -1
0 0 -2.26767e-18
-1.02584e-05 3.87194e-05 0.540859
LINES 2 6
2 0 1
2 1 2
CELL_DATA 2
scalars Radius float
LOOKUP_TABLE default
1 1 
scalars Flowrate float
LOOKUP_TABLE default
0.251309 0.251309 
POINT_DATA 3
scalars Pressure float
LOOKUP_TABLE default
0 -0.251309 -0.502618 
