# vtk DataFile Version 3.0
vtk output
ASCII
DATASET POLYDATA
POINTS 3 float
0 0 -1
0 0 -1.7007e-18
-8.79099e-06 3.02689e-05 0.530644
LINES 2 6
2 0 1
2 1 2
CELL_DATA 2
scalars Radius float
LOOKUP_TABLE default
1 1 
scalars Flowrate float
LOOKUP_TABLE default
0.25328 0.25328 
POINT_DATA 3
scalars Pressure float
LOOKUP_TABLE default
0 -0.25328 -0.506559 
