# vtk DataFile Version 3.0
vtk output
ASCII
DATASET POLYDATA
POINTS 3 float
0 0 -1
0 0 -1.74989e-18
-3.25582e-05 0.000139756 0.531542
LINES 2 6
2 0 1
2 1 2
CELL_DATA 2
scalars Radius float
LOOKUP_TABLE default
1 1e+14 
scalars Flowrate float
LOOKUP_TABLE default
7.69118e-13 7.69118e-13 
POINT_DATA 3
scalars Pressure float
LOOKUP_TABLE default
0 -7.69118e-13 -76.9118 
