# vtk DataFile Version 3.0
vtk output
ASCII
DATASET POLYDATA
POINTS 3 float
0 0 -1
0 0 -1.09881e-19
-0.00010187 3.58366e-05 0.501994
LINES 2 6
2 0 1
2 1 2
CELL_DATA 2
scalars Radius float
LOOKUP_TABLE default
0.0001 0.0001 
scalars Flowrate float
LOOKUP_TABLE default
0.0560398 0.0560398 
POINT_DATA 3
scalars Pressure float
LOOKUP_TABLE default
0 -5.60398e-06 -1.1208e-05 
