# vtk DataFile Version 3.0
vtk output
ASCII
DATASET POLYDATA
POINTS 3 float
0 0 -1
0 0 -1.34294e-18
-3.05548e-05 0.000114028 0.524212
LINES 2 6
2 0 1
2 1 2
CELL_DATA 2
scalars Radius float
LOOKUP_TABLE default
1 1e+14 
scalars Flowrate float
LOOKUP_TABLE default
5.96753e-13 5.96753e-13 
POINT_DATA 3
scalars Pressure float
LOOKUP_TABLE default
0 -5.96753e-13 -59.6753 
