# vtk DataFile Version 3.0
vtk output
ASCII
DATASET POLYDATA
POINTS 3 float
0 0 -1
0 0 -2.0008e-18
-3.26994e-05 0.00015391 0.536059
LINES 2 6
2 0 1
2 1 2
CELL_DATA 2
scalars Radius float
LOOKUP_TABLE default
1 1e+14 
scalars Flowrate float
LOOKUP_TABLE default
8.74701e-13 8.74701e-13 
POINT_DATA 3
scalars Pressure float
LOOKUP_TABLE default
0 -8.74701e-13 -87.4701 
