# vtk DataFile Version 3.0
vtk output
ASCII
DATASET POLYDATA
POINTS 3 float
0 0 -1
0 0 -7.55266e-19
-0.0237604 -0.00168628 0.526995
LINES 2 6
2 0 1
2 1 2
CELL_DATA 2
scalars Radius float
LOOKUP_TABLE default
1 100000 
scalars Flowrate float
LOOKUP_TABLE default
0.335424 0.335424 
POINT_DATA 3
scalars Pressure float
LOOKUP_TABLE default
0 -0.335424 -33542.7 
