# vtk DataFile Version 3.0
vtk output
ASCII
DATASET POLYDATA
POINTS 3 float
0 0 -1
0 0 0
4.0831e-05 -0.000202789 0.507683
LINES 2 6
2 0 1
2 1 2
CELL_DATA 2
scalars Radius float
LOOKUP_TABLE default
0.0001 0.0001 
scalars Flowrate float
LOOKUP_TABLE default
0.180329 0.180329 
POINT_DATA 3
scalars Pressure float
LOOKUP_TABLE default
0 -1.80329e-05 -3.60658e-05 
