# For a description of the Tecplot format see the Tecplot User's guide.
#
Variables=x,y,z,s_u,s_v,s_w,s_p,mono_f_vel_u,mono_f_vel_v,mono_f_vel_w,const,u_nu,v_nu,w_nu,p_nu,x_nu,y_nu,z_nu,const,u_ref,v_ref,w_ref,vol_ref,x_ref,y_ref,z_ref,const,I1,I2,I3,J,p1,p2,p3
Zone f=fepoint, n=3174, e=16683, et=brick, c=black
-25.0868 -154.447 110.281 -25.086846479251690 -154.44695430601334 110.28056264867907 -162.23204313073666 -1.1267905893510976e-05 -4.7079130823762096e-05 -4.7928043656180510e-05 -158.13962308084351 1.8682340396924960e-11 9.7018504341406242e-12 5.8185094076179666e-08 -0.00094797445823785985 8.1806557981415740e-12 3.9618684990094769e-11 -2.0676769995436192e-11 -0.00094226780840161431 -24.903554063199991 -154.16086777200002 112.24023381839994 89.724962256112903 0.0000000000000000 0.0000000000000000 0.0000000000000000 0.0000000000000000 3.0642996265420801 3.1292776449100552 1.0649748246360677 1.0330708396588422 410.97444762173814 410.97476209931028 1.0319667181134531 
-37.712031026244333 -155.53944409785339 112.98726237329952 -37.712031026244311 -155.53944409785342 112.98726237329949 -140.67718641180517 3.7718448968591878e-05 -4.1694171306194616e-05 -2.5030574110027858e-05 0.0000000000000000 -2.9059559442777311e-11 -9.8421034818036077e-09 -2.0624179895370399e-08 -0.00097832336399501243 -8.0648341557237825e-11 8.3081686695959811e-11 -5.5416922218048559e-11 0.0000000000000000 -37.438273663334591 -155.10473791080037 114.93291110338620 89.036758072416930 0.0000000000000000 0.0000000000000000 0.0000000000000000 0.0000000000000000 3.0900894322342793 3.1824222367561430 1.0923462879290795 1.0427170475540171 426.42070760403647 426.42005556896709 1.0451696601495355 
-31.760270274155623 -148.14050646205609 118.06740470054345 -31.760270274155605 -148.14050646205612 118.06740470054352 -125.99751388736968 1.2483372144124690e-05 -3.0399874638859031e-05 -6.5615132216543035e-06 0.0000000000000000 2.2185288328646638e-11 8.8527518649073045e-12 5.3264541222119981e-08 -0.00095947395945465328 -1.9487529491947036e-11 8.0714556354622776e-12 6.4670173341112427e-12 0.0000000000000000 -31.542619574254449 -147.87907313389167 119.86135157363466 98.260374494724786 0.0000000000000000 0.0000000000000000 0.0000000000000000 0.0000000000000000 3.0748586473967898 3.1511061812528047 1.0762515291786776 1.0385456518514544 378.80203707858408 378.80204112322809 1.0374059817565600 
-28.850324551637730 -143.20953874359634 110.16233354589527 -28.850324551637748 -143.20953874359643 110.16233354589529 -124.34206434103282 1.5172609048340134e-05 -3.6986077678520661e-05 -2.5570285461391542e-05 0.0000000000000000 2.0658703914211429e-11 8.2114870458838141e-12 5.8259814750272199e-08 -0.00097643011022884138 -1.0875074497406536e-10 1.0634325978596937e-12 -2.9514652169029861e-11 0.0000000000000000 -28.647655777685479 -142.96738158566356 112.12452093910819 112.69127588814607 0.0000000000000000 0.0000000000000000 0.0000000000000000 0.0000000000000000 3.0789059241651748 3.1595082248824995 1.0806121828147195 1.0387382607366924 381.03242195398883 381.03244111410402 1.0395245309402019 
-24.441831738454706 -200.89984014149695 70.929379561643827 -24.441831738454706 -200.89984014149695 70.929379561643827 -382.28821493944940 1.5266973579643385e-06 5.8478114549444027e-08 1.1323805194067557e-06 -383.91992058941963 1.8345165664346294e-11 1.5835610600589686e-11 8.3051393318100963e-08 -0.00095116463848379427 -1.2043091314070452e-12 -1.7009656718853710e-13 -3.1284722162709178e-13 -0.00095103421938992822 -24.261860196399997 -200.43215969199997 73.726546483199982 142.71380061529433 0.0000000000000000 0.0000000000000000 0.0000000000000000 0.0000000000000000 3.0622813703618266 3.1254497003318851 1.0631719383526035 1.0310637513499357 797.43891699679432 797.64096742354263 1.0311023531782526 
-24.336828694140852 -188.05655109060561 72.547145589302588 -24.336828694140852 -188.05655109060561 72.547145589302573 -376.86007879655790 6.7963290047794865e-06 -9.5943914683698001e-06 -2.9679940876049620e-06 -378.64895555693892 1.8289182668329573e-11 1.4149514893091464e-11 8.2029115944237674e-08 -0.00095098196914920798 -1.2855091227212361e-12 -9.0221725269241728e-14 -1.4221874404458881e-13 -0.00095067631208103714 -24.157397762799999 -187.63907770800003 75.309882232799993 165.73632395326644 0.0000000000000000 0.0000000000000000 0.0000000000000000 0.0000000000000000 3.0622851843158285 3.1254514387660168 1.0631697932118287 1.0310637513499366 788.37615372691209 790.41794106440113 1.0311010229570632 
-35.120493161909963 -195.85930489294537 78.970651425463728 -35.120493161909963 -195.85930489294523 78.970651425463686 -374.12974282201350 2.6437735520013809e-06 -7.5156993423560717e-06 -1.5189471057164102e-05 0.0000000000000000 2.3948239225024534e-11 1.5177914480801746e-11 7.7970060630150342e-08 -0.00095229677897919836 -1.5126172399285836e-12 -2.0291699343931597e-13 3.2190600447360743e-13 0.0000000000000000 -34.885542273181727 -195.41132893576267 81.596679120775832 139.46796289390394 0.0000000000000000 0.0000000000000000 0.0000000000000000 0.0000000000000000 3.0617422343088374 3.1243624438923052 1.0626238242522035 1.0305024943990979 782.56122896366753 782.77974074682322 1.0308362273770006 
-18.974423419043600 -194.97421596361789 78.782932147637482 -18.974423419043596 -194.97421596361798 78.782932147637453 -379.49602136126049 3.4085978153502503e-06 -4.7016395696053328e-06 -7.0770536715514978e-06 0.0000000000000000 1.5475030978873150e-11 1.5067336267549081e-11 7.8088686628063897e-08 -0.00095023941810400408 -1.0537433193442560e-12 2.2021497272594675e-14 -4.7117100557555293e-13 0.0000000000000000 -18.822600960987238 -194.52970000168264 81.412954998504986 111.95285379220412 0.0000000000000000 0.0000000000000000 0.0000000000000000 0.0000000000000000 3.0623933723812375 3.1256723892759766 1.0632826112841485 1.0310637513499372 795.78652161992693 792.21340878497392 1.0311561876413753 
-22.835684327252707 -103.29402854468744 39.778543640334746 -22.835684327252707 -103.29402854468744 39.778543640334753 -377.21684891899872 -1.0469875165158641e-05 1.1972276892271118e-05 -1.6256375403628503e-05 -380.41298846586187 1.7502395366353340e-11 2.9182212202272244e-12 1.0273583672670837e-07 -0.00095563022495937498 -4.5950075068115803e-12 6.0886368917851805e-12 -7.7331565606438146e-12 -0.00095635898579252165 -22.663982073999996 -103.20790935200000 43.238681550399988 69.202643319072678 0.0000000000000000 0.0000000000000000 0.0000000000000000 0.0000000000000000 3.0621591114570723 3.1252008837183443 1.0630453554391470 1.0310637513499374 789.30044294458924 789.29540942632093 1.0310410885144459 
-30.362112939439587 -110.88891611929077 43.610164972474010 -30.362112939439594 -110.88891611929078 43.610164972474017 -368.38369108925889 8.7660850360002441e-07 1.9042498590771515e-05 -2.2020080977930212e-05 -365.20664517976462 2.1450514975374091e-11 3.9220293679420593e-12 1.0031460817572224e-07 -0.00095148557329103711 -9.0137984491753732e-13 1.0303212713381159e-11 -1.0542709235580497e-11 -0.00094967696999870342 -30.151660686400003 -110.77310694400001 46.988755992800002 74.715282964229786 0.0000000000000000 0.0000000000000000 0.0000000000000000 0.0000000000000000 3.0624729840447009 3.1258323860475659 1.0633629916571714 1.0310637513499372 772.51252894365200 772.51200041907339 1.0311954566053736 
-18.886520200207659 -103.65457697087837 46.695492086301144 -18.886520200207659 -103.65457697087838 46.695492086301151 -361.83879737204558 -1.2717036677528074e-05 9.8288152051994735e-06 -2.3499849627584280e-05 -362.40297264584484 1.5429026112290248e-11 2.9624080966073056e-12 9.8364970391173756e-08 -0.00094861931928123724 -6.3365847729655739e-12 6.4410220925126313e-12 -1.0301504822542785e-11 -0.00094805306749677794 -18.735150314000002 -103.56704831999998 50.008419303199993 79.719497061372692 0.0000000000000000 0.0000000000000000 0.0000000000000000 0.0000000000000000 3.0621843203627530 3.1252511441836575 1.0630704035388907 1.0310637513499368 761.83453271611313 761.85301507813267 1.0310530494652288 
-25.678216330187638 -98.555183253043040 47.690486825356615 -25.678216330187638 -98.555183253043054 47.690486825356622 -366.69586046271428 2.3821960028869445e-07 4.6677209885210673e-06 -3.6187595967069874e-05 0.0000000000000000 1.8994618378176395e-11 2.2965518375883676e-12 9.7736223558797519e-08 -0.00095286926825672387 -2.5380825510567671e-12 5.5442087127832540e-12 -1.2787629495731695e-11 0.0000000000000000 -25.491879232152165 -98.487589184379729 50.982237960580505 72.292163684038698 0.0000000000000000 0.0000000000000000 0.0000000000000000 0.0000000000000000 3.0621264208985552 3.1251386853358571 1.0630158805082255 1.0310637513499374 769.35632142487543 769.35724761087488 1.0310263684391030 
-25.520175555832228 -104.27845556800064 106.70437001032133 -25.520175555832228 -104.27845556800061 106.70437001032133 -123.45253283486208 1.1847260108966879e-05 3.9918989151919579e-05 -7.8666033275727265e-06 0.0000000000000000 -9.9731651677491381e-10 -1.7957196436539529e-08 -7.7095458306365779e-08 -0.00090587457033466554 6.3754191632973800e-11 4.4929205483021849e-12 -2.5735506648554655e-10 0.0000000000000000 -25.283559732051039 -104.23282252886388 108.75695162467670 96.378087069502698 0.0000000000000000 0.0000000000000000 0.0000000000000000 0.0000000000000000 3.0751936855313597 3.1515697700806706 1.0763732921771949 1.0396623337329307 366.87621130561382 366.87701389365498 1.0374626001272267 
-26.162601224177827 -118.10698354384553 108.63968588704209 -26.162601224177823 -118.10698354384557 108.63968588704209 -95.211701832902065 1.9644234853257054e-05 4.5404369171665323e-06 -1.5569723177686093e-05 0.0000000000000000 2.0261458940034156e-08 -9.7557249263800002e-08 -1.4345132272846685e-07 -0.00092515445428714639 7.5511196848254472e-11 -9.2634308078836413e-11 -1.7148794279501679e-10 0.0000000000000000 -25.913646985361510 -118.01095136745833 110.66456878241424 88.846747377876298 0.0000000000000000 0.0000000000000000 0.0000000000000000 0.0000000000000000 3.1021526607644079 3.2069257668189843 1.1047877944428555 1.0474411710016776 370.25716757618591 370.25845927673487 1.0511113452838041 
-36.615089315833650 -112.70475325506706 110.06369225917257 -36.615089315833664 -112.70475325506699 110.06369225917253 -97.169253822061165 -1.1068447767373689e-05 2.6164746825060739e-05 1.6898987723247379e-05 0.0000000000000000 -3.7761648421778810e-08 -1.1804414152766120e-07 -2.0334444842596067e-07 -0.00088455011321395233 -4.5436970557241279e-11 -1.1617002361497142e-11 2.7802830049388850e-11 0.0000000000000000 -36.236867317722961 -112.72601430119678 112.03758904139967 95.996160021407249 0.0000000000000000 0.0000000000000000 0.0000000000000000 0.0000000000000000 3.1052289821438426 3.2132778619470241 1.1080679763922638 1.0503116802824692 380.03683215019612 380.03705337748039 1.0526515090448081 
-33.698880788092957 -105.04894214782789 103.45408536084786 -33.698880788092971 -105.04894214782783 103.45408536084781 -122.22716101941592 1.1258553518815991e-06 4.5895430469450247e-05 -1.2558583614052350e-05 0.0000000000000000 -2.5165217215768991e-08 -3.7382727780908361e-08 -1.7876630908765392e-07 -0.00092422471874000964 6.9572172814507455e-11 2.1101569964499504e-11 -1.4269979427943930e-10 0.0000000000000000 -33.380789828628046 -105.09637623893835 105.63342596379557 85.433794965156210 0.0000000000000000 0.0000000000000000 0.0000000000000000 0.0000000000000000 3.0923047416946852 3.1864709565582285 1.0941698449785624 1.0439957524642938 388.32475385093852 388.32901946636167 1.0460220039974464 
-112.85458909013391 -160.97508595158342 122.97476559381231 -112.85458909013391 -160.97508595158342 122.97476559381228 -253.75119125673436 1.7087183583286131e-06 -5.4062687435074363e-06 -1.4284336799936829e-05 -253.03230822376449 6.4747436578915796e-11 1.0566825192626082e-11 5.0163532883118485e-08 -0.00091057851581397269 8.6450985803522574e-13 -2.3067773089599728e-12 -1.1804909752011187e-11 -0.00090950396644046301 -112.21942232800005 -160.66347960400000 124.66427103520003 147.55923210393107 0.0000000000000000 0.0000000000000000 0.0000000000000000 0.0000000000000000 3.0674424144440740 3.1360920689840914 1.0686557403031911 1.0310637513499368 584.26883894465857 584.26429743638005 1.0337781980082514 
-100.10212787825215 -158.39621396430948 114.71964524666318 -100.10212787825218 -158.39621396430948 114.71964524666325 -259.96753853156252 -1.3059272873767508e-05 -9.4378994585946614e-06 -2.7673223480518905e-05 0.0000000000000000 5.8048350848327601e-11 1.0209111334091858e-11 5.5380002805804907e-08 -0.00091947550217345332 4.7086765196897187e-12 6.3191120153505392e-12 -2.2553944747652612e-12 0.0000000000000000 -99.532617471171264 -158.09468895943013 116.58484116745363 117.70414803503969 0.0000000000000000 0.0000000000000000 0.0000000000000000 0.0000000000000000 3.0493872819168790 3.0984533473995843 1.0490572620105814 1.0255015616297691 557.45116448794204 557.45102269933022 1.0242182925723418 
-104.93696523691320 -149.12024313356457 119.12022044143778 -104.93696523691322 -149.12024313356457 119.12022044143774 -247.69113417743776 -1.1306082021338922e-05 -1.0426183615709912e-05 -1.2944665978106782e-05 0.0000000000000000 6.0589873396299522e-11 8.9862006724672483e-12 5.2599252953200448e-08 -0.00091281703162363482 1.0320932795864556e-11 -4.3572789809908867e-12 -7.2652523134537329e-12 0.0000000000000000 -104.34256255272837 -148.85497981259945 120.89176065121424 119.29379793442074 0.0000000000000000 0.0000000000000000 0.0000000000000000 0.0000000000000000 3.0502860097474116 3.1006836820464070 1.0503962141574414 1.0259135741960910 538.31606880294555 538.31767306421000 1.0248671941829135 
-101.10508384490971 -162.60101716594642 122.87621252629785 -101.10508384490971 -162.60101716594639 122.87621252629786 -250.87017750567128 -7.4769602725001565e-06 -1.4702141463247481e-05 -1.2890399332641504e-05 0.0000000000000000 5.8574374517395000e-11 1.0787204463014179e-11 5.0225810177551011e-08 -0.00091300680589591733 8.0728951129145561e-12 2.6922702967982265e-14 -1.0490591543066993e-11 0.0000000000000000 -100.53040969477119 -162.28305471776312 124.56781543385799 141.51484144144280 0.0000000000000000 0.0000000000000000 0.0000000000000000 0.0000000000000000 3.0517180055532989 3.1038049947997011 1.0520863668413727 1.0263276150892353 546.41850049707125 546.41669299136584 1.0256979078197943 
-78.860675851052264 -149.06247548330097 86.992936356305293 -78.860675851052278 -149.06247548330094 86.992936356305322 -265.52933826123160 -3.2646487907842538e-05 -2.2781130406624919e-05 -1.1061970456790997e-05 -265.57596105672116 4.6908261996936324e-11 8.9913076983805240e-12 7.2900718350865645e-08 -0.00094683081504046899 8.0410381311214237e-12 -4.8033036636938713e-12 1.9167504443247539e-12 -0.00095299059472016962 -78.400527573600002 -148.79743798799998 89.448228916799977 108.06316173413846 0.0000000000000000 0.0000000000000000 0.0000000000000000 0.0000000000000000 3.0664712654405375 3.1339683658643365 1.0675023674944009 1.0310637513499377 603.65043369537022 603.64971595328461 1.0332141895247309 
-80.618562086059441 -162.85359413968854 85.281288836985468 -80.618562086059441 -162.85359413968854 85.281288836985453 -316.27189776397120 -1.9148661032060450e-05 -3.6893326782706757e-05 -2.0340785958417223e-05 -317.94700740159522 4.7831245908458435e-11 1.0805412120618031e-11 7.3982316273202287e-08 -0.00094711459756920894 9.6363897822096555e-12 -2.3652412218599687e-12 4.8550491017487106e-12 -0.00094857566193244603 -80.149363288800018 -162.53464431600008 87.773009718400019 109.57810873427631 0.0000000000000000 0.0000000000000000 0.0000000000000000 0.0000000000000000 3.0671407743193280 3.1352503204698583 1.0681135844857397 1.0310637513499366 693.77840783930162 693.77799967005433 1.0335160529405534 
-84.786134256212065 -160.49415968425097 92.638045297549283 -84.786134256212051 -160.49415968425095 92.638045297549240 -293.28777252610649 -1.4153711143896103e-05 -2.5537417372966659e-05 -3.7898720670193920e-05 0.0000000000000000 5.0005784235640505e-11 1.0495104785235297e-11 6.9333534469251390e-08 -0.00094606642683361974 -9.5781760637290830e-13 3.6501133705541167e-12 -5.8247701205427677e-12 0.0000000000000000 -84.295478612813938 -160.18443337667750 94.973195224810283 106.11323630727971 0.0000000000000000 0.0000000000000000 0.0000000000000000 0.0000000000000000 3.0503286590836036 3.1012831736161348 1.0509559944581497 1.0262728418130433 615.40230790443968 615.40281123938405 1.0251349934511256 
-86.975940597119944 -151.66536183106061 90.248478751207486 -86.975940597119930 -151.66536183106061 90.248478751207529 -284.22269278035509 -1.5895846365537746e-05 -3.3122592445516452e-05 -3.6650067074528159e-05 0.0000000000000000 5.1162137026938836e-11 9.3285934532616466e-12 7.0843513277907277e-08 -0.00094739467903597182 -2.3647262610661891e-12 9.0175839566806995e-12 -2.8904771420629068e-12 0.0000000000000000 -86.474010682800568 -151.39014911596544 92.634484883397832 94.367740677547317 0.0000000000000000 0.0000000000000000 0.0000000000000000 0.0000000000000000 3.0565401540296033 3.1138787155479029 1.0573421808045682 1.0273613535463777 610.20974917525029 610.21108621035319 1.0282710074462960 
-26.207719789404841 -132.63170132089294 137.25912756811397 -26.207719789404845 -132.63170132089294 137.25912756811391 -161.59522928270414 1.2221072376482007e-05 -1.0548711307262260e-05 4.8127489872948442e-05 -169.42410519605411 1.9272229645483921e-11 6.8010597154000152e-12 4.1137139916713743e-08 -0.00087880661992326896 -1.5624499149117238e-11 2.5639130917974475e-12 5.1688777261085795e-12 -0.00087098839189123957 -26.018656529999991 -132.43089511199997 138.64462455200004 49.421240865332216 0.0000000000000000 0.0000000000000000 0.0000000000000000 0.0000000000000000 3.0615367180214483 3.1239138284350925 1.0623810992778913 1.0333281167555415 411.41420133581784 411.41420031588763 1.0307304998477913 
-32.718028656502469 -134.16360806845174 136.19480154396817 -32.718028656502490 -134.16360806845171 136.19480154396811 -155.32492063376881 -1.5751758470336820e-06 7.3519435133355441e-06 2.8578119830632321e-05 -134.47488448268783 2.2687081380201590e-11 7.0145556030354328e-12 4.1809695261463282e-08 -0.00089326173161504265 -1.7788987638298027e-11 -2.5247147889282620e-11 -3.4659899311578457e-11 -0.00085786504257100995 -32.495446914399992 -133.95681332000001 137.60295016000006 48.530522504776933 0.0000000000000000 0.0000000000000000 0.0000000000000000 0.0000000000000000 3.0787061079910809 3.1589513496700339 1.0802528498249053 1.0393463813013597 436.60037702693256 436.60037580271813 1.0393282981228962 
-28.619685177957319 -136.65531244297199 138.96074236658202 -28.619685177957312 -136.65531244297199 138.96074236658202 -163.09926781384843 1.5050500522782880e-05 8.5541663263397756e-06 1.5124098387901433e-05 -170.55833708433198 2.0535913247687887e-11 7.3437367298367901e-12 4.0061874706509564e-08 -0.00088717973261410131 -9.5958075563620524e-12 -7.8620343183067968e-12 -2.1398545838865620e-11 -0.00088484026441149792 -28.418203856399998 -136.43877710800004 140.31002455199999 44.353383947079159 0.0000000000000000 0.0000000000000000 0.0000000000000000 0.0000000000000000 3.0652603948021375 3.1314129719195809 1.0661554993225109 1.0351491838402924 423.18035553311233 423.18035582869021 1.0325404971784029 
-26.961308621051586 -129.69104771180545 142.57599416328682 -26.961308621051572 -129.69104771180540 142.57599416328682 -172.68647750281309 5.4855502806588820e-06 6.8044427037057724e-06 9.7532131428213582e-06 0.0000000000000000 1.9668495998548252e-11 6.4061533855408462e-12 3.7777370565095225e-08 -0.00087700562705805656 -8.5381340271478875e-12 -4.3156681620849113e-12 -6.0238475197944799e-12 0.0000000000000000 -26.768365491316434 -129.50173712462359 143.84833436668455 49.139845408488213 0.0000000000000000 0.0000000000000000 0.0000000000000000 0.0000000000000000 3.0666884549079829 3.1345418916279111 1.0678587302122935 1.0352395129077914 445.75186586958790 445.75186604636235 1.0333661722016847 
-40.330536849895601 -65.414109770329858 152.90077918318408 -40.330536849895601 -65.414109770329873 152.90077918318408 -234.82150618333219 -5.7301346059507662e-06 -1.7610873603322185e-07 9.4274748791879320e-06 -236.48093912643878 2.6685161025330476e-11 -2.0950463586189012e-12 3.1253071242076658e-08 -0.00087950701173242587 -1.7159849999470481e-12 3.3717655863531491e-13 1.6882453983386087e-12 -0.00087925415457027953 -40.068761925200000 -65.476070995999990 153.95338104800004 156.95717166164070 0.0000000000000000 0.0000000000000000 0.0000000000000000 0.0000000000000000 3.0605153775893776 3.1219111489124240 1.0613999685438567 1.0300941105498309 537.06545230301504 537.06545203189228 1.0302437493982775 
-52.752487543951936 -59.570973016327876 148.10923610447384 -52.752487543951936 -59.570973016327891 148.10923610447387 -238.04835809748118 -5.8460287808779431e-06 -1.5143937806206782e-06 7.4746152573068251e-06 -238.82072449079894 3.3203058358299842e-11 -2.8732016765786739e-12 3.4280881244797001e-08 -0.00088143726181571526 -1.6504027331668908e-12 6.3305091403797598e-13 -7.6690441402221520e-13 -0.00088112086321346110 -52.426757905599978 -59.655776269200025 149.26381449600007 118.05125250056595 0.0000000000000000 0.0000000000000000 0.0000000000000000 0.0000000000000000 3.0636841872148444 3.1283609334582669 1.0646812982658935 1.0302581073658919 549.38278169227692 549.38278221913595 1.0318366533459520 
-35.409355365169787 -65.969981961017922 143.75228544529233 -35.409355365169795 -65.969981961017908 143.75228544529230 -228.88958626115240 -1.8096096733145550e-06 1.0443799348742366e-06 6.8445229210106831e-07 -228.76386906524428 2.4099423845402868e-11 -2.0223822616571852e-12 3.7034064703789233e-08 -0.00087889866945153731 -1.9165409592061195e-12 2.3425151658610998e-12 -3.7527326569895403e-12 -0.00087736744186494838 -35.172917262399999 -66.029770167599992 144.99959110400002 155.12084301790807 0.0000000000000000 0.0000000000000000 0.0000000000000000 0.0000000000000000 3.0630070164535939 3.1268854121455760 1.0638819735797456 1.0309427454017868 532.57966351598475 532.57966320872390 1.0314470084875023 
-50.728135457427257 -66.532539133911456 140.89536216516919 -50.728135457427250 -66.532539133911470 140.89536216516913 -232.91431809434914 -5.9464108626700744e-06 3.0819700864930193e-06 4.6440506821069953e-06 0.0000000000000000 3.2139409189557711e-11 -1.9448886945383492e-12 3.8839377936028541e-08 -0.00088195417991111965 -2.5404137669584577e-12 1.4259502561520097e-12 -3.3922339190994984e-12 0.0000000000000000 -50.412828244765279 -66.590128188430739 142.20347059834828 136.07757377940416 0.0000000000000000 0.0000000000000000 0.0000000000000000 0.0000000000000000 3.0557499482639288 3.1119757723797590 1.0562251458224015 1.0284559251387695 523.87652551814620 523.87652644442653 1.0277239015738184 
-95.103493657871894 -159.02071746993840 74.914513774441687 -95.103493657871908 -159.02071746993846 74.914513774441701 -364.50655771746881 -7.9736301454514539e-06 -1.0809356526019966e-05 -1.5703147777060769e-05 -364.51165362878680 5.5427114287187600e-11 1.0313361276104159e-11 8.0533167690077789e-08 -0.00094308204219215410 -2.2906633600338032e-12 1.9479133432093543e-12 -1.1671244910978192e-12 -0.00094216955416091634 -94.559718839999974 -158.71675115199997 77.626866652000004 109.98746742214213 0.0000000000000000 0.0000000000000000 0.0000000000000000 0.0000000000000000 3.0619208364518680 3.1247201831993299 1.0628029441892513 1.0310637513499368 766.29293398387949 766.30590238851812 1.0309226258924724 
-90.200671997948234 -158.76938901916705 79.830628669318202 -90.200671997948206 -158.76938901916705 79.830628669318216 -342.18850391396103 -2.8586057421824494e-05 -2.5127814333162488e-05 -3.2322653620457651e-05 -334.59891499303046 5.2853672827257725e-11 1.0259515459409840e-11 7.7426636657662571e-08 -0.00094325911470353302 4.3363329429128891e-13 3.3669352819698867e-12 2.9415772579713874e-12 -0.00094204182858281815 -89.682139475999989 -158.46640519600001 82.438353807199988 112.88451412247700 0.0000000000000000 0.0000000000000000 0.0000000000000000 0.0000000000000000 3.0625951411491377 3.1260373987864787 1.0634455252795922 1.0310637513499357 725.91160235629525 725.91930352921361 1.0312322186908545 
-103.29581980293327 -155.23319877051904 84.091952970984238 -103.29581980293325 -155.23319877051915 84.091952970984224 -339.18945294512417 -6.5520328164146469e-06 -5.8069193230686183e-06 -3.6912768963672070e-05 0.0000000000000000 5.9728784418400251e-11 9.7880037408515363e-12 7.4733867094778374e-08 -0.00094374474749997169 -6.5021371300242613e-13 4.8367212949785867e-12 -5.0500519355588407e-12 0.0000000000000000 -102.70986659571734 -154.94403864466588 86.608986019839278 111.02505284862640 0.0000000000000000 0.0000000000000000 0.0000000000000000 0.0000000000000000 3.0633558574918438 3.1276387604177294 1.0642866015290187 1.0302473881264513 727.46129407476121 727.42347868830973 1.0316482351218574 
-100.98110049568059 -167.51107013725465 81.089134289051913 -100.98110049568054 -167.51107013725468 81.089134289051842 -356.08444323686678 -3.8905188078941665e-06 -7.3494059041720109e-06 -3.5222606325082077e-05 0.0000000000000000 5.8511868961108604e-11 1.1432021995716468e-11 7.6631379464231486e-08 -0.00094184223959786686 5.5345825374138198e-13 1.0032304990110309e-12 4.9483753513052552e-13 0.0000000000000000 -100.40706467681501 -167.17391327890167 83.670075146830683 105.53983917324770 0.0000000000000000 0.0000000000000000 0.0000000000000000 0.0000000000000000 3.0621171641347433 3.1251202954975050 1.0630067422105929 1.0304070581566480 750.27826422338342 750.28221714514768 1.0310229313689137 
-115.27167342329655 -99.878619080380560 94.271886334497808 -115.27167342329655 -99.878619080380545 94.271886334497808 -292.83275618697843 -6.1294529755517256e-06 -8.3813299572167988e-06 -2.6378050305354846e-05 -295.93959163789026 6.6015979027620059e-11 2.4597546222082656e-12 6.8301093669731472e-08 -0.00094921980979635081 -3.5719706639386728e-12 -3.8609462485782998e-12 -1.6905116795921239e-11 -0.00094953004976396993 -114.62406224400000 -99.805851428000011 96.572263865600007 85.211636250682801 0.0000000000000000 0.0000000000000000 0.0000000000000000 0.0000000000000000 3.0635968169530416 3.1279374680973953 1.0643395584322286 1.0279768236958602 644.21351072547543 644.20124090389243 1.0316616528839968 
-111.71687131062278 -91.136233838228421 98.000240067747640 -111.71687131062278 -91.136233838228449 98.000240067747640 -279.25068197243610 -2.7917842996718898e-06 -4.0255134079706637e-07 -2.8955887171156613e-05 -277.34614072197485 6.4149359435550224e-11 1.3095080575453723e-12 6.5945117810883858e-08 -0.00094257237878131483 -3.5741203155385402e-13 4.5107731250499842e-12 -2.2346222030374162e-11 -0.00093868390336222438 -111.08756211600000 -91.097641973600034 100.22126851279998 99.535403830130534 0.0000000000000000 0.0000000000000000 0.0000000000000000 0.0000000000000000 3.0685912481753546 3.1383234747863069 1.0697385478445869 1.0299539264378097 630.40504129557644 630.40325369468144 1.0342958647345630 
-113.54305942028395 -97.720134579098968 106.34334590860608 -113.54305942028395 -97.720134579098996 106.34334590860611 -260.78971839017464 -2.5931665848765769e-06 -1.5881646353663291e-06 -2.5023382458725179e-05 -260.42956540916879 6.5097822965487508e-11 2.1778689962559383e-12 6.0673051471837880e-08 -0.00092969038159933378 -4.4968457086769644e-12 -8.0198004672574607e-12 -2.0931619581184782e-11 -0.00092968477215639922 -112.90434805199999 -97.655804887999992 108.38681131359999 128.09762094244454 0.0000000000000000 0.0000000000000000 0.0000000000000000 0.0000000000000000 3.0635039524699810 3.1280632160941790 1.0645640375344900 1.0298958647902414 589.94418944410313 590.01079909889029 1.0317779463647718 
-107.76362209508372 -103.92980588472541 98.336288552593103 -107.76362209508366 -103.92980588472541 98.336288552593061 -276.01774333885709 -2.8454070040110043e-05 -2.6680588661282039e-06 -3.0893463817440994e-05 0.0000000000000000 6.2064027528396792e-11 3.0079272406169366e-12 6.5732773890658791e-08 -0.00094565184780684886 4.1391259737310827e-13 -7.3714318298785219e-12 -1.1171089206620127e-11 0.0000000000000000 -107.15466629968294 -103.84120130723400 100.55016500991876 102.24201981555134 0.0000000000000000 0.0000000000000000 0.0000000000000000 0.0000000000000000 3.0516026399305773 3.1031762071849713 1.0515688076041945 1.0253404817854854 588.21686765902837 588.20340938681682 1.0254451446288977 
-27.120285714274548 -115.45537486691110 101.13191944351388 -27.120285714274562 -115.45537486691104 101.13191944351381 -110.53992047684342 2.4941342256292355e-05 1.3796868178611411e-05 -3.7106553243065801e-05 0.0000000000000000 1.6970460469802904e-08 -9.1193214994147598e-08 -1.2658188132585355e-07 -0.00098652659085766569 -4.2218994532163291e-12 -7.1061775794636505e-11 -1.5904090607137800e-10 0.0000000000000000 -26.889884864405381 -115.37486796036181 103.37575244326078 96.382960025775517 0.0000000000000000 0.0000000000000000 0.0000000000000000 0.0000000000000000 3.0886070494974391 3.1791846198461298 1.0905859425745001 1.0443381472031699 369.47553747134606 369.47026750151713 1.0443071794563112 
-110.18978110173946 -103.70951678595138 151.10666460427129 -110.18978110173947 -103.70951678595135 151.10666460427132 -242.63803580224379 7.1281773514473394e-07 2.3512312038743716e-06 2.7053916714207382e-07 -243.57809758025257 6.3338119471456622e-11 2.9770075293811264e-12 3.2386795467687080e-08 -0.00088370435909382327 -1.7271719996995144e-13 -4.5899325732676184e-15 -6.9457068961114954e-13 -0.00088282600836194988 -109.56833416800004 -103.62177336400003 152.19744990400002 70.302883591683823 0.0000000000000000 0.0000000000000000 0.0000000000000000 0.0000000000000000 3.0595696105327264 3.1198394136245389 1.0602718423274289 1.0297312709079507 548.99553906812901 549.00178309177340 1.0296972295374489 