# For a description of the Tecplot format see the Tecplot User's guide.
#
Variables=x,y,z,s_u,s_v,s_w,s_p,mono_f_vel_u,mono_f_vel_v,mono_f_vel_w,const,u_nu,v_nu,w_nu,p_nu,x_nu,y_nu,z_nu,const,u_ref,v_ref,w_ref,vol_ref,x_ref,y_ref,z_ref,const,I1,I2,I3,J,p1,p2,p3
Zone f=fepoint, n=3174, e=16683, et=brick, c=black
-25.4358 -154.990 106.365 -25.435826079191219 -154.98968541672414 106.36504605961311 -87.166663796646432 -1.9445167332347134e-05 -5.7034265639029744e-05 -7.4476630369590941e-05 -66.868428223859226 3.9919933469967361e-09 2.0672130673915490e-09 1.2766134377173445e-05 0.0021611286643965356 8.1545526659163074e-11 2.1462580410403560e-11 5.3662189671102257e-11 0.0020094613193451980 -24.903554063199991 -154.16086777200002 112.24023381839994 89.724962256112903 0.0000000000000000 0.0000000000000000 0.0000000000000000 0.0000000000000000 3.1907177269215783 3.3889592356389517 1.1983036643668084 1.0952566630336296 830.94840409608344 830.94830644872138 1.0946400746108060 
-38.169414995475570 -156.11161914299967 109.17064437044672 -38.169414995475570 -156.11161914299967 109.17064437044669 -59.557948745063797 4.0625846560882015e-05 -1.7557636542508297e-05 -2.9952419891334790e-05 0.0000000000000000 1.0281122478815172e-07 9.5952027357707110e-07 1.2936737997817259e-05 0.0023206596652984579 2.3740603890959754e-10 -1.4564671243545227e-10 5.3518548059002888e-10 0.0000000000000000 -37.438273663334591 -155.10473791080037 114.93291110338620 89.036758072416930 0.0000000000000000 0.0000000000000000 0.0000000000000000 0.0000000000000000 3.2154992327727858 3.4430891740582430 1.2277759399265593 1.1047046345462737 875.14087822545503 875.13500708140668 1.1080712267968236 
-32.174666329454745 -148.63646829074145 114.48301317097281 -32.174666329454766 -148.63646829074148 114.48301317097277 -43.559048975846721 7.7598419269727255e-06 -7.9367120343019012e-06 -2.8382350013459788e-05 0.0000000000000000 4.7402973213372945e-09 1.8890677910832214e-09 1.1686535586363787e-05 0.0021603129541236895 1.0559758858820049e-11 4.7032148238621264e-10 -4.1248455381578330e-10 0.0000000000000000 -31.542619574254449 -147.87907313389167 119.86135157363466 98.260374494724786 0.0000000000000000 0.0000000000000000 0.0000000000000000 0.0000000000000000 3.1982579383910532 3.4057083975216829 1.2075594017920348 1.0995254317292102 802.67775033557803 802.68614380410111 1.0988704835246954 
-29.236195768666985 -143.66893199586764 106.24178942211974 -29.236195768666988 -143.66893199586772 106.24178942211981 -45.913815068795522 -4.0080203573298569e-07 -3.2944221059530193e-05 -2.3771210981042403e-06 0.0000000000000000 4.4139971677736867e-09 1.7498005266958216e-09 1.2782526132681937e-05 0.0020726065293567813 5.4015975668461439e-10 2.9633739003211848e-10 2.5332087739826867e-10 0.0000000000000000 -28.647655777685479 -142.96738158566356 112.12452093910819 112.69127588814607 0.0000000000000000 0.0000000000000000 0.0000000000000000 0.0000000000000000 3.2026165800359889 3.4150982317082854 1.2126170846397275 1.0999905860942594 815.40072738860283 815.40021607786900 1.1011900060718316 
-24.784488560267988 -201.78707075054515 65.340506462439322 -24.784488560267988 -201.78707075054515 65.340506462439308 -595.89552080151793 8.9818402877205890e-06 1.1173836682433135e-06 4.4396180368151273e-06 -600.84085419132577 3.9196670909014131e-09 3.3793761122780105e-09 1.8221939146911836e-05 0.0031121982015238406 -1.4260386104071444e-11 -1.2080912916052970e-11 -1.8378203379742785e-11 0.0031134271968329933 -24.261860196399997 -200.43215969199997 73.726546483199982 142.71380061529433 0.0000000000000000 0.0000000000000000 0.0000000000000000 0.0000000000000000 3.1880066302864485 3.3838882417454093 1.1959752899811045 1.0934949607980213 1727.8213226507871 1727.8210431921577 1.0936068653273152 
-24.678456220172528 -188.84853451413545 67.027065830015630 -24.678456220172531 -188.84853451413548 67.027065830015644 -582.15029538125691 2.2038195495863639e-05 -2.6288854934260115e-05 -7.8959549372485828e-06 -588.24317031820397 3.9078924540802973e-09 3.0166045217328011e-09 1.7997645620937419e-05 0.0030867761242940736 -7.2162059151113677e-11 7.3896212189739176e-11 4.3526881298601053e-11 0.0031068996954513139 -24.157397762799999 -187.63907770800003 75.309882232799993 165.73632395326644 0.0000000000000000 0.0000000000000000 0.0000000000000000 0.0000000000000000 3.1879412927383397 3.3837170450359233 1.1958682956541140 1.0934949607980193 1704.5939554498514 1704.5918330640648 1.0935567026528654 
-35.567827912141496 -196.70915436122596 73.723722673735523 -35.567827912141496 -196.70915436122596 73.723722673735523 -570.96889874672638 1.3275100487367434e-05 -1.9293023036854159e-05 -3.9696289218752172e-05 0.0000000000000000 5.1170812032097501e-09 3.2370117697411160e-09 1.7107065181320994e-05 0.0030793906368110167 -3.3783920546628323e-11 7.5882589675284444e-11 2.1437763541581782e-11 0.0000000000000000 -34.885542273181727 -195.41132893576267 81.596679120775832 139.46796289390394 0.0000000000000000 0.0000000000000000 0.0000000000000000 0.0000000000000000 3.1866222785712082 3.3810349705114184 1.1945059037695718 1.0923307483179510 1680.5392082559918 1680.5393522120498 1.0929336921468176 
-19.263485791702838 -195.81750151909407 73.528020884305135 -19.263485791702845 -195.81750151909395 73.528020884305093 -590.96670906032114 1.1467825163306254e-05 -1.2137360637179239e-05 -1.9091399439689923e-05 0.0000000000000000 3.3065985505231765e-09 3.2120033299776196e-09 1.7133091334997630e-05 0.0030988297970233366 -4.4895741260451857e-11 5.8542546849942085e-11 8.8793885517244811e-12 0.0000000000000000 -18.822600960987238 -194.52970000168264 81.412954998504986 111.95285379220412 0.0000000000000000 0.0000000000000000 0.0000000000000000 0.0000000000000000 3.1881708735170227 3.3842026730596468 1.1961251381274076 1.0934949607980211 1726.8886614652963 1726.8920722948662 1.0936757921491316 
-23.162596836453023 -103.45740416550076 32.865022843248127 -23.162596836453023 -103.45740416550076 32.865022843248134 -490.59975436971098 -2.1422393617042680e-05 2.4004655649984438e-05 -3.3130904782951763e-05 -498.57324182625354 3.7395672669582317e-09 6.2228799890817754e-10 2.2540815121985247e-05 0.0030173372225640507 1.1563109902180298e-11 -1.0950543380304936e-10 1.5289443035231552e-10 0.0030613592033477905 -22.663982073999996 -103.20790935200000 43.238681550399988 69.202643319072678 0.0000000000000000 0.0000000000000000 0.0000000000000000 0.0000000000000000 3.1877092532586988 3.3832632748314930 1.1956472059887584 1.0934949607980200 1545.6374126912503 1545.6407450516724 1.0934569705675770 
-30.762803511663890 -111.10861622699703 36.859578755685519 -30.762803511663890 -111.10861622699706 36.859578755685511 -472.49372134325819 4.1668063179123167e-06 3.6989861431615528e-05 -4.7128035025505588e-05 -468.18042040636186 4.5835166218033407e-09 8.3682216711622459e-10 2.2009583874549318e-05 0.0029565884692493529 8.4040108966784246e-11 -1.3496024378014380e-10 1.7057303495252041e-10 0.0029942235822778738 -30.151660686400003 -110.77310694400001 46.988755992800002 74.715282964229786 0.0000000000000000 0.0000000000000000 0.0000000000000000 0.0000000000000000 3.1881225377051750 3.3840957752798393 1.1960662431192064 1.0934949607980207 1510.6089014393667 1510.6053331687235 1.0936491829406678 
-19.174720898684697 -103.82062645682871 40.076105284798601 -19.174720898684701 -103.82062645682869 40.076105284798594 -459.14757011290345 -2.6368681644292510e-05 1.8194470017031208e-05 -5.0348910729561908e-05 -460.85836183459008 3.2967406582429248e-09 6.3246496928570650e-10 2.1581821838978499e-05 0.0029157014334727813 3.7575324867357495e-11 -1.3992197207632046e-10 1.5483711005385936e-10 0.0029287952202558414 -18.735150314000002 -103.56704831999998 50.008419303199993 79.719497061372692 0.0000000000000000 0.0000000000000000 0.0000000000000000 0.0000000000000000 3.1877286109681227 3.3832977934295037 1.1956622353445456 1.0934949607980211 1489.0255517345847 1489.0264246885183 1.0934634259256144 
-26.032992852463245 -98.683415097612780 41.113410846389435 -26.032992852463245 -98.683415097612823 41.113410846389442 -466.31344074633461 3.7173108002201203e-06 6.5806183337579027e-06 -8.0157492017995138e-05 0.0000000000000000 4.0583059690568746e-09 4.8842863087372734e-10 2.1443871800030934e-05 0.0029609118869538156 1.2022442263512887e-11 -7.4440069530607797e-11 1.4490459317143545e-10 0.0000000000000000 -25.491879232152165 -98.487589184379729 50.982237960580505 72.292163684038698 0.0000000000000000 0.0000000000000000 0.0000000000000000 0.0000000000000000 3.1877886013958374 3.3834490965104873 1.1957544031792444 1.0934949607980207 1500.4283886952553 1500.4281566780983 1.0935050342395831 
-25.866287744405554 -104.47295715704126 102.63931797232745 -25.866287744405554 -104.47295715704134 102.63931797232740 -37.084322742060493 9.4483352196063153e-06 3.9689831225060461e-05 9.7261712092493904e-06 0.0000000000000000 3.0019679639932190e-07 -1.4188681134898989e-07 1.3815974693140950e-05 0.0017049210777159522 -9.8658627203755361e-10 -3.3418211740174651e-10 1.7536773362417436e-09 0.0000000000000000 -25.283559732051039 -104.23282252886388 108.75695162467670 96.378087069502698 0.0000000000000000 0.0000000000000000 0.0000000000000000 0.0000000000000000 3.1998324345286870 3.4088685550170941 1.2091432645575824 1.1010334293367763 784.07852782115049 784.07878009317972 1.0995987629125710 
-26.509787040048955 -118.41073021258076 104.64864924600067 -26.509787040048963 -118.41073021258079 104.64864924600074 -18.912292757439726 3.4830526347610689e-06 -4.9600023893673472e-06 -4.2146338632771610e-06 0.0000000000000000 2.6036369710365883e-07 9.8553802562006605e-08 1.3965876695677715e-05 0.0016644381114279488 -8.9676730498205503e-10 6.6618560754925010e-10 1.5749443362246940e-09 0.0000000000000000 -25.913646985361510 -118.01095136745833 110.66456878241424 88.846747377876298 0.0000000000000000 0.0000000000000000 0.0000000000000000 0.0000000000000000 3.2177572669111503 3.4465781273624612 1.2289735245246214 1.1057164334833920 820.72252350599206 820.72245179476909 1.1086034501442683 
-37.042636161632991 -112.99956830601629 106.11447386615943 -37.042636161633006 -112.99956830601637 106.11447386615951 -21.514081546755747 -1.8527537972520312e-05 -3.1156483818246394e-06 -1.2247432311204196e-06 0.0000000000000000 9.7467791664598809e-07 -4.3464840040963060e-07 1.3798038804523753e-05 0.0013108853200078305 5.7069235988271426e-10 -2.7205916985858363e-11 -3.7760541544388388e-10 0.0000000000000000 -36.236867317722961 -112.72601430119678 112.03758904139967 95.996160021407249 0.0000000000000000 0.0000000000000000 0.0000000000000000 0.0000000000000000 3.2164772114508611 3.4440376774199817 1.2277207278162259 1.1071227141705970 825.35379730517900 825.35383062820358 1.1080250365034710 
-34.107816826506919 -105.27611700461928 99.250714026223989 -34.107816826506912 -105.27611700461924 99.250714026224017 -32.343218997047778 -7.1340725525394994e-06 3.8989340285866795e-05 1.2648173721647165e-05 0.0000000000000000 5.5195391985718611e-07 -7.5725707905622000e-07 1.4950268020222296e-05 0.0017449808162749172 -5.6105432866416762e-10 -6.8101093292613696e-10 1.1809145631685505e-09 0.0000000000000000 -33.380789828628046 -105.09637623893835 105.63342596379557 85.433794965156210 0.0000000000000000 0.0000000000000000 0.0000000000000000 0.0000000000000000 3.2157578124271322 3.4420516749921246 1.2264308244801609 1.1051847398055918 814.57068431705670 814.57074630000113 1.1074426995338698 
-114.06391486213894 -161.56623037476189 119.59905303280503 -114.06391486213896 -161.56623037476191 119.59905303280500 -204.04390422277200 5.0621855543816547e-06 -1.5096135911472730e-05 -2.8102764720712382e-05 -202.46996926920005 1.3833536538498947e-08 2.2516108977299609e-09 1.1006159523319072e-05 0.0023224131999823390 -2.8148200560931348e-11 8.4778765443446313e-11 1.4275513730444857e-10 0.0023141680751447920 -112.21942232800005 -160.66347960400000 124.66427103520003 147.55923210393107 0.0000000000000000 0.0000000000000000 0.0000000000000000 0.0000000000000000 3.1927195166642837 3.3942542405274954 1.2016517544172434 1.0934949607980196 1062.1526343812345 1062.1561855833083 1.0962176880192231 
-101.18644723147871 -158.96823320097016 110.99289471700509 -101.18644723147871 -158.96823320097013 110.99289471700511 -219.83102768398359 -2.2777116123276772e-05 -2.3153559191040190e-05 -5.5149685717205033e-05 0.0000000000000000 1.2403571725272401e-08 2.1787891490987477e-09 1.2150682291434121e-05 0.0024448212659801357 1.2453312244512273e-10 3.2085238686055057e-11 9.3358566267317956e-11 0.0000000000000000 -99.532617471171264 -158.09468895943013 116.58484116745363 117.70414803503969 0.0000000000000000 0.0000000000000000 0.0000000000000000 0.0000000000000000 3.1764310451657560 3.3573373186906683 1.1809000795274220 1.0880710399848867 1030.7815964009178 1030.8001476725588 1.0866749968718203 
-106.06867824172909 -149.62347079268793 115.58059849528996 -106.06867824172909 -149.62347079268787 115.58059849528992 -187.80197638183796 -1.8257496998262394e-05 -3.0909069310057021e-05 -1.8331776239312534e-05 0.0000000000000000 1.2945710503586838e-08 1.9167634146555201e-09 1.1540569008872126e-05 0.0023115331542743131 -4.4907627953399233e-11 1.8299546189358375e-10 1.1625028500594876e-10 0.0000000000000000 -104.34256255272837 -148.85497981259945 120.89176065121424 119.29379793442074 0.0000000000000000 0.0000000000000000 0.0000000000000000 0.0000000000000000 3.1767694889375386 3.3590949535945547 1.1823658985943668 1.0889907009624795 977.78270103959869 977.77910702935981 1.0873461663211363 
-102.19923470685457 -163.20421966641339 119.49630912770496 -102.19923470685457 -163.20421966641337 119.49630912770498 -202.52391116738480 -9.8866113997036767e-06 -3.6000851960748823e-05 -2.8287725554247747e-05 0.0000000000000000 1.2516040204246792e-08 2.2975426006155431e-09 1.1019823309865727e-05 0.0023481455489823967 -3.8143221782517454e-12 1.4081571112850243e-10 1.2616056318474340e-10 0.0000000000000000 -100.53040969477119 -162.28305471776312 124.56781543385799 141.51484144144280 0.0000000000000000 0.0000000000000000 0.0000000000000000 0.0000000000000000 3.1782881602679822 3.3629904894901346 1.1847608486594259 1.0890247599742222 1008.9777040344123 1009.0042642295268 1.0884549120102853 
-79.736775174948278 -149.56527473144021 82.087144558084148 -79.736775174948292 -149.56527473144021 82.087144558084134 -252.33537220150447 -6.4037196493172804e-05 -4.6871925926755528e-05 -2.2391214817801405e-05 -254.64133225013271 1.0021745433519413e-08 1.9151151775531616e-09 1.5994823645115730e-05 0.0026179980462979089 1.2883269125575292e-10 1.9164337738588438e-10 1.1551424390238240e-10 0.0026895804950620920 -78.400527573600002 -148.79743798799998 89.448228916799977 108.06316173413846 0.0000000000000000 0.0000000000000000 0.0000000000000000 0.0000000000000000 3.1950392711590863 3.3983107585481540 1.2033744633892507 1.0934949607980211 1159.1887873657761 1159.2076418477113 1.0970178134526418 
-81.511893147359473 -163.45866977761901 80.302711513785795 -81.511893147359473 -163.45866977761901 80.302711513785795 -361.71167931839375 -3.4516578892572976e-05 -8.6948976088176250e-05 -4.2586581429182952e-05 -364.59743984214310 1.0218859536337277e-08 2.3046953234739931e-09 1.6232133280169592e-05 0.0027929968659323860 -6.4126036554726302e-12 2.6245709189231865e-10 1.6686961299193547e-10 0.0028389924730238959 -80.149363288800018 -162.53464431600008 87.773009718400019 109.57810873427631 0.0000000000000000 0.0000000000000000 0.0000000000000000 0.0000000000000000 3.1957851132334429 3.3996952745279292 1.2040058803040483 1.0934949607980196 1348.4261941245738 1348.5374572479063 1.0973164136750762 
-85.720318080232616 -161.08173750753249 87.972304218422877 -85.720318080232587 -161.08173750753249 87.972304218422821 -308.00745302318683 -2.0886329957596594e-05 -5.6797827778319060e-05 -8.4539473329007131e-05 0.0000000000000000 1.0686164175766066e-08 2.2380424180568070e-09 1.5212163257061205e-05 0.0027026027915932308 2.9076102180778536e-11 1.3247076170819348e-10 2.2075262390772488e-10 0.0000000000000000 -84.295478612813938 -160.18443337667750 94.973195224810283 106.11323630727971 0.0000000000000000 0.0000000000000000 0.0000000000000000 0.0000000000000000 3.1689829835956114 3.3453431353241383 1.1764509776412422 1.0862927343797908 1155.8299414464707 1155.7281763190842 1.0845819964459580 
-87.931590069531595 -152.18746435874652 85.481124545789896 -87.931590069531637 -152.18746435874661 85.481124545789939 -286.04729990174718 -2.6345312852284758e-05 -7.4302190697249761e-05 -7.9814952213508650e-05 0.0000000000000000 1.0931722416174239e-08 1.9886472468755301e-09 1.5543462277278767e-05 0.0027120484009383800 1.5507886028736106e-10 1.1864256677773774e-10 1.3214244694749165e-10 0.0000000000000000 -86.474010682800568 -151.39014911596544 92.634484883397832 94.367740677547317 0.0000000000000000 0.0000000000000000 0.0000000000000000 0.0000000000000000 3.1783926202398067 3.3645422747547915 1.1862472137510369 1.0881244823614100 1147.5053606478832 1147.5196595202699 1.0891479327969773 
-26.567686786685059 -133.01264821574046 134.49083842433927 -26.567686786685048 -133.01264821574046 134.49083842433927 -84.381494748590100 1.5076181266899041e-05 -1.4857012112878444e-05 6.7443077361750318e-05 -94.671211163475235 4.1176767551220905e-09 1.4509908830007136e-09 9.0257186684539192e-06 0.0017785183274410285 5.7986097264359060e-11 -1.1518733761582319e-11 -3.8311612507871200e-10 0.0017477644614515770 -26.018656529999991 -132.43089511199997 138.64462455200004 49.421240865332216 0.0000000000000000 0.0000000000000000 0.0000000000000000 0.0000000000000000 3.1869432354928193 3.3814996328670328 1.1946461578399623 1.0949407819326404 834.95694116155448 834.95504713587809 1.0930039378108991 
-33.141813169719086 -134.55591574523004 133.38125335734654 -33.141813169719065 -134.55591574523001 133.38125335734651 -74.578498767741422 -9.5978264689554618e-07 1.2408834969592919e-05 2.3356938080483431e-05 -24.556756697746486 4.8476885838866224e-09 1.4942549420027262e-09 9.1732810787448216e-06 0.0018671663550404488 1.6007386610910395e-10 2.0621190724406907e-10 -2.3041464394491711e-12 0.0012205187835986860 -32.495446914399992 -133.95681332000001 137.60295016000006 48.530522504776933 0.0000000000000000 0.0000000000000000 0.0000000000000000 0.0000000000000000 3.2007624639915568 3.4112107481104910 1.2105777358335379 1.0998113335032280 866.16957903343075 866.16789088013900 1.1002574071832614 
-29.003295544970719 -137.06609886206286 136.26481211972964 -29.003295544970726 -137.06609886206292 136.26481211972964 -82.439018987765664 1.5826551707386242e-05 2.0809377870563615e-05 2.0075896411427099e-05 -90.403131702280675 4.3881365208164880e-09 1.5646393070056772e-09 8.7898000202812909e-06 0.0019225764973558402 -2.2847631067773489e-11 1.5119524482878439e-10 7.5866857295594692e-11 0.0019451752237513132 -28.418203856399998 -136.43877710800004 140.31002455199999 44.353383947079159 0.0000000000000000 0.0000000000000000 0.0000000000000000 0.0000000000000000 3.1885827064862862 3.3848844367770941 1.1963900085871300 1.0960368507282006 837.29495386182543 837.29703001284724 1.0937979782592835 
-27.328662697540313 -130.05018640948944 140.03379767118395 -27.328662697540313 -130.05018640948944 140.03379767118395 -97.729446675088013 1.2285469989592173e-05 1.4930346317288882e-05 8.2225770045484842e-06 0.0000000000000000 4.2021789936619305e-09 1.3679171129155066e-09 8.2885671073285022e-06 0.0018497563118967260 1.1600995081627196e-11 3.2676581618704500e-11 -4.2964979588660141e-11 0.0000000000000000 -26.768365491316434 -129.50173712462359 143.84833436668455 49.139845408488213 0.0000000000000000 0.0000000000000000 0.0000000000000000 0.0000000000000000 3.1907517063863313 3.3900554250072887 1.1994125809063689 1.0961530335235408 879.95990150280738 879.95510345339642 1.0951747127454572 
-40.828943224050796 -65.296563920278132 150.79763038605427 -40.828943224050803 -65.296563920278132 150.79763038605421 -170.09222862031825 -3.8857189312846904e-06 -4.7341021717890803e-06 2.1911208579876482e-05 -172.82282729638652 5.7012916609977538e-09 -4.4772463514419774e-10 6.8570978069004695e-06 0.0020625495876896893 5.9871247014370263e-12 3.2571194937512824e-12 -7.4714774872105873e-11 0.0020741886533893225 -40.068761925200000 -65.476070995999990 153.95338104800004 156.95717166164070 0.0000000000000000 0.0000000000000000 0.0000000000000000 0.0000000000000000 3.1867479720539427 3.3813754177759843 1.1947239254487880 1.0926010596311415 983.17085608138257 983.16748673338998 1.0930356084706538 
-53.372660496707653 -59.410093848135283 145.80233333667849 -53.372660496707674 -59.410093848135269 145.80233333667846 -172.18781085481655 -1.2533423426115993e-05 -1.1092120430374789e-06 1.1351957969542470e-05 -174.02859753090158 7.0941837959637163e-09 -6.1277505292167689e-10 7.5214164088066573e-06 0.0020614090599776493 5.2469234519823734e-11 -1.0356654968302907e-11 -2.6395735741593654e-11 0.0020683571028822546 -52.426757905599978 -59.655776269200025 149.26381449600007 118.05125250056595 0.0000000000000000 0.0000000000000000 0.0000000000000000 0.0000000000000000 3.1888994790334690 3.3859180409857665 1.1971187926211633 1.0926416124103027 994.31118728189006 994.31356548410986 1.0941314221187679 
-35.859521696611409 -65.856558517731415 141.26010916910542 -35.859521696611409 -65.856558517731415 141.26010916910539 -159.70098422378578 1.5438771041952080e-06 -1.6202794521633698e-06 -1.2521268945449600e-06 -159.18913322278078 5.1494711827970718e-09 -4.3201431321193695e-10 8.1254814165987455e-06 0.0020205768256997864 6.9878265002027914e-12 -9.0564283615565327e-13 -4.3635414330715431e-13 0.0020159627331170693 -35.172917262399999 -66.029770167599992 144.99959110400002 155.12084301790807 0.0000000000000000 0.0000000000000000 0.0000000000000000 0.0000000000000000 3.1880545938550924 3.3838929688693447 1.1959301972045007 1.0932377204898780 969.87378320630103 969.88256969018755 1.0935860869483938 
-51.328464632540474 -66.423287673922914 138.28169904170792 -51.328464632540467 -66.423287673922914 138.28169904170787 -163.73190829143905 -1.0178488133156837e-05 8.7325248698518883e-06 5.7137080127861218e-06 0.0000000000000000 6.8671910380402323e-09 -4.1613346102309379e-10 8.5215766265633874e-06 0.0020394044143254328 3.8313043628723317e-11 -3.0558230201657891e-11 -6.4168776473639550e-12 0.0000000000000000 -50.412828244765279 -66.590128188430739 142.20347059834828 136.07757377940416 0.0000000000000000 0.0000000000000000 0.0000000000000000 0.0000000000000000 3.1813939045449140 3.3694921961723581 1.1881605864947711 1.0909768418219270 952.27571714033513 952.26929740628941 1.0900247192685353 
-96.138813735406401 -159.59736809043088 69.495103185780053 -96.138813735406387 -159.59736809043085 69.495103185780053 -459.28431487438866 -2.0404507632321178e-05 -2.3998368898295594e-05 -3.9247588131989885e-05 -459.13220659657986 1.1843076963558021e-08 2.1964134955254622e-09 1.7669424268618172e-05 0.0030100946948385669 3.6829503084084339e-11 5.3132253892693548e-12 1.3655661296376253e-10 0.0030430357305892340 -94.559718839999974 -158.71675115199997 77.626866652000004 109.98746742214213 0.0000000000000000 0.0000000000000000 0.0000000000000000 0.0000000000000000 3.1874142255157776 3.3826644034913449 1.1953436608023933 1.0934949607980227 1488.8218784842015 1489.7775301175693 1.0933163233441763 
-91.187932005553222 -159.34417576137400 74.620269301447962 -91.187932005553208 -159.34417576137406 74.620269301447948 -410.01291808556829 -5.9673119061548167e-05 -5.6545520704407951e-05 -7.0761054302634000e-05 -394.10014961246094 1.1293314505778086e-08 2.1893067359002316e-09 1.6987834518644718e-05 0.0028971047122399482 9.7166007910982850e-11 7.0261063534351992e-11 2.6399650489773970e-10 0.0029376046297821335 -89.682139475999989 -158.46640519600001 82.438353807199988 112.88451412247700 0.0000000000000000 0.0000000000000000 0.0000000000000000 0.0000000000000000 3.1888095229987958 3.3853134224338479 1.1965926170483812 1.0934949607980207 1401.1134011412214 1401.9786171539677 1.0938851094412558 
-104.41144542587145 -155.78176075306308 79.062800728354233 -104.41144542587151 -155.78176075306320 79.062800728354247 -399.80502469736967 -1.2330188679710035e-05 -9.6139446187872259e-06 -8.7606860737249163e-05 0.0000000000000000 1.2761696810414945e-08 2.0894252994452241e-09 1.6397027547299103e-05 0.0029222738581312800 1.2183599016973673e-10 -5.0628274046530915e-12 1.1258167699003501e-10 0.0000000000000000 -102.70986659571734 -154.94403864466588 86.608986019839278 111.02505284862640 0.0000000000000000 0.0000000000000000 0.0000000000000000 0.0000000000000000 3.1890092412147770 3.3860108877860577 1.1970964906606807 1.0921804103993373 1395.8365210502309 1392.7222100406877 1.0941282346142165 
-102.07403600678316 -168.15068610816601 75.932291192018297 -102.07403600678313 -168.15068610816607 75.932291192018312 -437.14533477398152 -5.4609999812179404e-06 -1.5473968167411912e-05 -8.4296307651897658e-05 0.0000000000000000 1.2502135104952572e-08 2.4362414308143347e-09 1.6813350288913395e-05 0.0029511555116920468 6.8854615588406691e-11 5.9256882002413811e-11 1.0077465850711383e-10 0.0000000000000000 -100.40706467681501 -167.17391327890167 83.670075146830683 105.53983917324770 0.0000000000000000 0.0000000000000000 0.0000000000000000 0.0000000000000000 3.1874950222628100 3.3828283089697631 1.1954261293756079 1.0924331490978845 1445.3075910519863 1445.4697965132480 1.0933566220940454 
-116.50469274365699 -100.01666566456012 89.675622163591981 -116.50469274365697 -100.01666566456014 89.675622163591953 -287.36532087619258 -1.3334858774298899e-05 -1.8534923047986389e-05 -5.8561796596008616e-05 -294.29789391191474 1.4104567067056201e-08 5.2581339282653516e-10 1.4985641030307305e-05 0.0028169752826693183 5.8404473556926480e-11 1.2395196964416294e-10 2.8604222246508207e-10 0.0028327464205215374 -114.62406224400000 -99.805851428000011 96.572263865600007 85.211636250682801 0.0000000000000000 0.0000000000000000 0.0000000000000000 0.0000000000000000 3.1893032052030086 3.3865319167494738 1.1973034586965294 1.0892662496753232 1194.1216016330802 1194.3212674555384 1.0941990754996294 
-112.91504456682443 -91.209445971845312 93.562519160403525 -112.91504456682445 -91.209445971845312 93.562519160403539 -257.64449440913495 -5.1046731580606821e-06 6.4104146131483953e-07 -6.3693107822989145e-05 -254.52693254143381 1.3705962587096112e-08 2.7885627140733510e-10 1.4468727218996946e-05 0.0026954793713195682 -2.5122197853844572e-12 -4.1080440053841513e-11 2.6928040530280954e-10 0.0026466710680696226 -111.08756211600000 -91.097641973600034 100.22126851279998 99.535403830130534 0.0000000000000000 0.0000000000000000 0.0000000000000000 0.0000000000000000 3.1954206521411730 3.3992179553867454 1.2039034973246392 1.0918993842489131 1163.9011331415118 1163.8621406880209 1.0972368461206821 
-114.75913394525338 -97.842173614673385 102.26040443553454 -114.75913394525334 -97.842173614673371 102.26040443553455 -212.10617383847682 -7.2882038415091750e-06 -5.8177100653205128e-06 -6.5999478505165371e-05 -212.36437521559230 1.3910727902910480e-08 4.6483927818030679e-10 1.3312005792798233e-05 0.0024869254816939079 5.2032427332399930e-11 1.3562407196273341e-10 2.6675090571128298e-10 0.0024760044920026096 -112.90434805199999 -97.655804887999992 108.38681131359999 128.09762094244454 0.0000000000000000 0.0000000000000000 0.0000000000000000 0.0000000000000000 3.1889230791994745 3.3862307054290430 1.1974132513226130 1.0923237141551494 1068.3674253049953 1068.3562489862543 1.0942573832072766 
-108.92304349634833 -104.09789649731498 93.912857658298776 -108.92304349634833 -104.09789649731498 93.912857658298847 -250.73190955064436 -6.0877004412135953e-05 -7.6734308692763514e-06 -6.8047504217175276e-05 0.0000000000000000 1.3262676290537456e-08 6.4023719659189748e-10 1.4422136116465367e-05 0.0027177828790571255 2.6555847263734877e-10 9.0727673064251578e-11 1.7753579660170502e-10 0.0000000000000000 -107.15466629968294 -103.84120130723400 100.55016500991876 102.24201981555134 0.0000000000000000 0.0000000000000000 0.0000000000000000 0.0000000000000000 3.1763056707639330 3.3576970821594796 1.1814181862888582 1.0866518454246605 1081.1048161345750 1081.0848374722439 1.0869129121768646 
-27.465772417187104 -115.74457279703412 96.833689174192543 -27.465772417187090 -115.74457279703405 96.833689174192529 -30.720356540914207 2.6896059996320413e-05 2.8680550800384725e-06 -3.3131506822765741e-05 0.0000000000000000 4.9568810308793826e-08 7.5498021429383066e-08 1.5227966607067328e-05 0.0022515438939885220 -4.4021555703806845e-10 6.3753481488442003e-10 1.6086464176553479e-09 0.0000000000000000 -26.889884864405381 -115.37486796036181 103.37575244326078 96.382960025775517 0.0000000000000000 0.0000000000000000 0.0000000000000000 0.0000000000000000 3.2111967617261987 3.4328088789920916 1.2217513208764712 1.1045514563738172 807.95298337507813 807.95312525914301 1.1053261978487827 
-111.37298500614365 -103.87597371136195 148.92722348058248 -111.37298500614362 -103.87597371136191 148.92722348058254 -166.41633696712171 -9.1350417601172500e-08 -2.6689257962941172e-07 3.5934207967989208e-07 -167.18740753341669 1.3534719123242668e-08 6.3402172401083590e-10 7.1058409734092720e-06 0.0020556344692833945 -1.0910669519362777e-12 -1.1987305963364599e-12 -3.0878868452993142e-12 0.0020507996308992828 -109.56833416800004 -103.62177336400003 152.19744990400002 70.302883591683823 0.0000000000000000 0.0000000000000000 0.0000000000000000 0.0000000000000000 3.1853400626943920 3.3780198067457432 1.1927612841084925 1.0922912434798315 971.35438483911139 971.35438530228373 1.0921374054008359 