# For a description of the Tecplot format see the Tecplot User's guide.
#
Variables=x,y,z,s_u,s_v,s_w,s_p,mono_f_vel_u,mono_f_vel_v,mono_f_vel_w,const,u_nu,v_nu,w_nu,p_nu,x_nu,y_nu,z_nu,const,u_ref,v_ref,w_ref,vol_ref,x_ref,y_ref,z_ref,const,I1,I2,I3,J,p1,p2,p3
Zone f=fepoint, n=3174, e=16683, et=brick, c=black
-25.3515 -154.859 107.334 -25.351506928171247 -154.85878790533431 107.33416627210748 -82.250104746583560 -1.6828711806879066e-05 -5.1666292098156307e-05 -6.6872215258392619e-05 -65.666961313591926 1.9671768103357579e-09 1.0192626742622224e-09 6.2438108727747021e-06 0.0016440624923337052 3.1940761765713805e-11 -3.5392569314701255e-11 -7.4783038387444828e-11 0.0015359339118357429 -24.903554063199991 -154.16086777200002 112.24023381839994 89.724962256112903 0.0000000000000000 0.0000000000000000 0.0000000000000000 0.0000000000000000 3.1590212844191750 3.3232836175926845 1.1642975116372014 1.0795422585338081 714.58155356586053 714.58161783363676 1.0790036703667156 
-38.054674406334456 -155.95785380809639 110.11886392838271 -38.054674406334463 -155.95785380809639 110.11886392838275 -57.263685816253137 3.7329038492669462e-05 -1.9066376467305626e-05 -2.7479487039696322e-05 0.0000000000000000 3.0992152163745960e-08 4.3719817438117930e-07 6.4368734256589186e-06 0.0018248833596795791 3.5293603388231536e-10 -2.8893571568544655e-10 3.5009811170501236e-10 0.0000000000000000 -37.438273663334591 -155.10473791080037 114.93291110338620 89.036758072416930 0.0000000000000000 0.0000000000000000 0.0000000000000000 0.0000000000000000 3.1807675843816088 3.3701038885199246 1.1894474906241850 1.0877402120249484 752.11567803490959 752.11565681554964 1.0906335905714204 
-32.074541498161146 -148.51685073457401 115.37017740633854 -32.074541498161132 -148.51685073457395 115.37017740633850 -42.451168640346644 7.7572702491949050e-06 -9.7353918011313564e-06 -2.4258076946007170e-05 0.0000000000000000 2.3359271739131775e-09 9.3141361290349778e-10 5.7157880135605410e-06 0.0016935249618871343 5.5237881093595602e-11 3.0252227836466680e-10 -2.7537879609581180e-10 0.0000000000000000 -31.542619574254449 -147.87907313389167 119.86135157363466 98.260374494724786 0.0000000000000000 0.0000000000000000 0.0000000000000000 0.0000000000000000 3.1658464904321924 3.3381767097426693 1.1723946704797088 1.0833441955363314 687.43559151278566 687.43556542368356 1.0827565862078032 
-29.142963002543709 -143.55813415825548 107.21215398779081 -29.142963002543720 -143.55813415825557 107.21215398779078 -44.500826286304971 1.2006724794076107e-06 -3.0717181503281274e-05 -4.8351725972917574e-06 0.0000000000000000 2.1751329626340521e-09 8.6274409838438249e-10 6.2518279317913547e-06 0.0016456017665112672 5.5830815198349229e-10 1.4311370324059536e-10 1.8043791415040790e-10 0.0000000000000000 -28.647655777685479 -142.96738158566356 112.12452093910819 112.69127588814607 0.0000000000000000 0.0000000000000000 0.0000000000000000 0.0000000000000000 3.1696345808064685 3.3462524780280107 1.1766990077404562 1.0837224455920058 698.66125997939560 698.66127365069042 1.0847583160395109 
-24.701697095347090 -201.57308582051013 66.723795170915253 -24.701697095347093 -201.57308582051016 66.723795170915253 -517.54950575320754 7.2094322326754630e-06 8.4923806809640345e-07 3.6174985249920092e-06 -521.70123916546152 1.9315367083549977e-09 1.6662098367703493e-09 8.9121999096164473e-06 0.0020400667408032470 -9.4624126316913578e-12 -6.1825694589369321e-12 -9.4073260975837624e-12 0.0020409395042267011 -24.261860196399997 -200.43215969199997 73.726546483199982 142.71380061529433 0.0000000000000000 0.0000000000000000 0.0000000000000000 0.0000000000000000 3.1567213598739952 3.3189497332862077 1.1622834081299160 1.0779992253672830 1481.5226510435680 1481.5226505947503 1.0780927150156694 
-24.595913449864348 -188.65752158497745 68.393327662297168 -24.595913449864351 -188.65752158497747 68.393327662297182 -505.87319773741882 1.8259084422529086e-05 -2.2094615166535102e-05 -6.6083206474076362e-06 -510.90241108602061 1.9257342387390963e-09 1.4873611231536188e-09 8.8024997939584182e-06 0.0020285501891207937 -3.6142693825833311e-11 3.5218226089968467e-11 2.0606181211048027e-11 0.0020387207062230110 -24.157397762799999 -187.63907770800003 75.309882232799993 165.73632395326644 0.0000000000000000 0.0000000000000000 0.0000000000000000 0.0000000000000000 3.1566640139538298 3.3188065770844632 1.1621969276391673 1.0779992253672863 1461.7929072188385 1461.7929066975701 1.0780517197924888 
-35.459744556071982 -196.50418512644558 75.022377548807981 -35.459744556071968 -196.50418512644569 75.022377548807981 -496.68434130919587 1.0717936075809262e-05 -1.6269301658324191e-05 -3.3629470556991307e-05 0.0000000000000000 2.5215979859716242e-09 1.5960262000902501e-09 8.3669242698647395e-06 0.0020231407390031569 -1.9269506907528402e-11 3.5593529901707529e-11 7.9247057456997845e-12 0.0000000000000000 -34.885542273181727 -195.41132893576267 81.596679120775832 139.46796289390394 0.0000000000000000 0.0000000000000000 0.0000000000000000 0.0000000000000000 3.1555658261326580 3.3165797212669621 1.1610686555781888 1.0770226341757829 1441.9207814399215 1441.9207832323318 1.0775283204783854 
-19.193643617952070 -195.61411538842202 74.828651491868087 -19.193643617952073 -195.61411538842194 74.828651491868143 -513.21421596239281 9.4724146192133167e-06 -1.0216157723282455e-05 -1.6136476953818982e-05 0.0000000000000000 1.6294274540751275e-09 1.5837033906507261e-09 8.3796534351421315e-06 0.0020352993741563573 -2.2524107502786374e-11 2.7970725389139445e-11 3.4887902473789145e-12 0.0000000000000000 -18.822600960987238 -194.52970000168264 81.412954998504986 111.95285379220412 0.0000000000000000 0.0000000000000000 0.0000000000000000 0.0000000000000000 3.1568572913051445 3.3192118280477514 1.1624093715956290 1.0779992253672852 1480.5131532912339 1480.5131531906568 1.0781514297713981 
-23.083609453699530 -103.41800074497779 34.576171957688501 -23.083609453699527 -103.41800074497779 34.576171957688501 -431.87727124329854 -1.8623725297090051e-05 2.0686859925821121e-05 -2.8540704553064295e-05 -438.61120274908586 1.8427859238556717e-09 3.0681890361705655e-10 1.1024526470393427e-05 0.0018581732848385020 6.6541558160186732e-12 -5.4333961505708558e-11 7.6934442088134251e-11 0.0018803808244469279 -22.663982073999996 -103.20790935200000 43.238681550399988 69.202643319072678 0.0000000000000000 0.0000000000000000 0.0000000000000000 0.0000000000000000 3.1564713548891765 3.3184285294793985 1.1620119174522949 1.0779992253672837 1333.3688285084108 1321.2947518554993 1.0779668815863299 
-30.665990148139144 -111.05562829838324 38.530400319089033 -30.665990148139144 -111.05562829838324 38.530400319089033 -416.22347111669416 3.6304243909723521e-06 3.2048844739508617e-05 -4.0506860019732900e-05 -412.23492380565773 2.2586675862967809e-09 4.1259773375657005e-10 1.0764705653087960e-05 0.0018268851389543104 3.9755607521531351e-11 -6.6658811716037314e-11 9.0124600915378488e-11 0.0018498289543088279 -30.151660686400003 -110.77310694400001 46.988755992800002 74.715282964229786 0.0000000000000000 0.0000000000000000 0.0000000000000000 0.0000000000000000 3.1568237055864969 3.3191377074803516 1.1623686424967532 1.0779992253672852 1303.1651820538298 1309.2267703512678 1.0781327954647040 
-19.105086919440176 -103.78057814552038 41.714453992493603 -19.105086919440172 -103.78057814552038 41.714453992493596 -404.69869106445702 -2.2820044594896703e-05 1.5680764367065233e-05 -4.3275067277169582e-05 -406.07968517672174 1.6245701450756656e-09 3.1184133053585583e-10 1.0555490774777354e-05 0.0018081079924779529 1.9357753667616713e-11 -7.2267653634862550e-11 7.7179253725147574e-11 0.0018134114685319227 -18.735150314000002 -103.56704831999998 50.008419303199993 79.719497061372692 0.0000000000000000 0.0000000000000000 0.0000000000000000 0.0000000000000000 3.1564874332357280 3.3184577251837060 1.1620249569962378 1.0779992253672839 1284.4666177608603 1280.3558692237236 1.0779726195270334 
-25.947273070661424 -98.652487758081563 42.741287302877332 -25.947273070661410 -98.652487758081548 42.741287302877332 -411.04836106348080 3.0321619436069157e-06 5.8200376459034016e-06 -6.8973077064884752e-05 0.0000000000000000 1.9998553368871796e-09 2.4081969751676974e-10 1.0488020555143860e-05 0.0018305046991512011 1.4661979546819091e-12 -4.0009085430416008e-11 7.1293503168459810e-11 0.0000000000000000 -25.491879232152165 -98.487589184379729 50.982237960580505 72.292163684038698 0.0000000000000000 0.0000000000000000 0.0000000000000000 0.0000000000000000 3.1565366598340883 3.3185782456969033 1.1620967571192293 1.0779992253672852 1294.5716466821541 1286.7332076016207 1.0780055368856312 
-25.776555907678070 -104.43320006257200 103.64787367513712 -25.776555907678052 -104.43320006257196 103.64787367513705 -36.418264871101414 8.9383070340485726e-06 3.5953405584313963e-05 7.7030776822002641e-06 0.0000000000000000 1.2771151104109378e-07 -1.5392764443855804e-08 6.9024613546101837e-06 0.0012713459534010650 -7.6854377156970080e-10 -1.7258696103714976e-10 1.4755238000815965e-09 0.0000000000000000 -25.283559732051039 -104.23282252886388 108.75695162467670 96.378087069502698 0.0000000000000000 0.0000000000000000 0.0000000000000000 0.0000000000000000 3.1672499445903433 3.3409871441037113 1.1737999217858723 1.0846850629938385 670.57644649406359 670.58683059185444 1.0834111374735338 
-26.418447961548509 -118.34545305561207 105.63981195288443 -26.418447961548509 -118.34545305561198 105.63981195288443 -19.253985820079130 4.5063218923262277e-06 -4.0832980895097915e-06 -4.9217273075863076e-06 0.0000000000000000 7.8732614152866667e-08 2.0687727313612999e-07 7.0764216004689371e-06 0.0012963894387509097 -7.2164243365064590e-10 5.8349178212085003e-10 1.2655319699446670e-09 0.0000000000000000 -25.913646985361510 -118.01095136745833 110.66456878241424 88.846747377876298 0.0000000000000000 0.0000000000000000 0.0000000000000000 0.0000000000000000 3.1832705437991264 3.3744535522197476 1.1912755060797366 1.0889033041997154 702.12489393664498 702.12508917951357 1.0914658741891077 
-36.921670872154401 -112.94992632126235 107.09158328965805 -36.921670872154415 -112.94992632126240 107.09158328965805 -21.482172069247035 -1.6445092552234346e-05 -8.9001547316452468e-07 -1.4994336831613511e-07 0.0000000000000000 5.0367497003600090e-07 2.9122914325506901e-08 7.0101099348858709e-06 0.0010001995596221121 4.2571413039573289e-10 -1.8962641460417338e-11 -3.2271831082217950e-10 0.0000000000000000 -36.236867317722961 -112.72601430119678 112.03758904139967 95.996160021407249 0.0000000000000000 0.0000000000000000 0.0000000000000000 0.0000000000000000 3.1823411440760636 3.3726178525125037 1.1903741826700631 1.0901979519185536 706.46426045474084 706.45788243748791 1.0910423229314743 
-33.997273405541307 -105.24153540175232 100.30067898876567 -33.997273405541335 -105.24153540175226 100.30067898876571 -32.230382177857805 -5.8160462390122434e-06 3.5965287184048669e-05 1.0484087062770591e-05 0.0000000000000000 2.4880215538004350e-07 -2.3959496304066864e-07 7.5215408110382764e-06 0.0013233492886484985 -4.3864378436508615e-10 -4.2134143674530771e-10 1.0327053638976511e-09 0.0000000000000000 -33.380789828628046 -105.09637623893835 105.63342596379557 85.433794965156210 0.0000000000000000 0.0000000000000000 0.0000000000000000 0.0000000000000000 3.1811744826557873 3.3698245445994059 1.1887315789082811 1.0883183671688783 697.64352529035057 697.63735439646928 1.0902890868467274 
-113.77172207373606 -161.42365639597392 120.43456763222694 -113.77172207373609 -161.42365639597392 120.43456763222692 -186.77063934424834 4.3126462509377145e-06 -1.2935215259578262e-05 -2.4747875834689681e-05 -185.36398319885868 6.8168909406196576e-09 1.1101648489386662e-09 5.3830217066064279e-06 0.0015586453449985369 -1.8380511513865951e-11 5.4505262041433005e-11 9.3895149751811642e-11 0.0015524542758311008 -112.21942232800005 -160.66347960400000 124.66427103520003 147.55923210393107 0.0000000000000000 0.0000000000000000 0.0000000000000000 0.0000000000000000 3.1609561463231564 3.3281156429206713 1.1672289381528744 1.0779992253672843 920.57968014385904 920.59758430359886 1.0803986164005897 
-100.92445802834349 -158.83027189182772 111.91529389041206 -100.92445802834347 -158.83027189182766 111.91529389041213 -200.56620164627432 -1.9660971864241114e-05 -1.9895230118694413e-05 -4.8322593426529646e-05 0.0000000000000000 6.1122403804958481e-09 1.0742640110805726e-09 5.9427983352122737e-06 0.0016482647388999696 4.0898984392122330e-11 1.0945812089771139e-11 5.0876406045399746e-11 0.0000000000000000 -99.532617471171264 -158.09468895943013 116.58484116745363 117.70414803503969 0.0000000000000000 0.0000000000000000 0.0000000000000000 0.0000000000000000 3.1462131243346181 3.2954140472138489 1.1491940825094102 1.0732104868167591 891.36831439879120 891.34725896140412 1.0719911910893070 
-105.79523796103392 -149.50210084181944 116.45668191738032 -105.79523796103391 -149.50210084181938 116.45668191738028 -172.88496385740024 -1.6020235872622360e-05 -2.6171753622595830e-05 -1.6838738609894574e-05 0.0000000000000000 6.3793960114466594e-09 9.4506669157112810e-10 5.6443969640440619e-06 0.0015545410818523177 -5.6847225011077057e-11 1.1569369878013118e-10 7.3242672543230694e-11 0.0000000000000000 -104.34256255272837 -148.85497981259945 120.89176065121424 119.29379793442074 0.0000000000000000 0.0000000000000000 0.0000000000000000 0.0000000000000000 3.1466352448941013 3.2970629888360978 1.1504500599519458 1.0739878499923976 845.78281325693729 845.73156875044162 1.0725743243355270 
-101.93487005120431 -163.05873748450594 120.33286099138539 -101.93487005120429 -163.05873748450594 120.33286099138546 -185.26583564788012 -8.6576417210181451e-06 -3.0966203647023372e-05 -2.4738767475608337e-05 0.0000000000000000 6.1676567186808029e-09 1.1328171733993031e-09 5.3897045404482924e-06 0.0015868073335579130 -2.9098369519344695e-11 8.0304083921142380e-11 8.9710021985302712e-11 0.0000000000000000 -100.53040969477119 -162.28305471776312 124.56781543385799 141.51484144144280 0.0000000000000000 0.0000000000000000 0.0000000000000000 0.0000000000000000 3.1480591567957208 3.3005385695019256 1.1525125520408155 1.0740506626274198 872.40722604371808 872.41138906891752 1.0735416060750813 
-79.525095319699147 -149.44400810601329 83.301365435917106 -79.525095319699162 -149.44400810601331 83.301365435917106 -227.38794101952024 -5.5399064901394842e-05 -4.0729727738512981e-05 -1.9205485142141656e-05 -229.18995132367351 4.9385192602002803e-09 9.4426466645813889e-10 7.8229361086812349e-06 0.0017841156771888471 2.2827679499034966e-11 9.8764550911987014e-11 4.7016462632836857e-11 0.0018398059193959514 -78.400527573600002 -148.79743798799998 89.448228916799977 108.06316173413846 0.0000000000000000 0.0000000000000000 0.0000000000000000 0.0000000000000000 3.1627228780509471 3.3312155794574987 1.1685535562724707 1.0779992253672870 1001.7800551246290 1001.7223747766942 1.0810215146265185 
-81.296049823905463 -163.31273582681973 81.534947364057047 -81.296049823905463 -163.31273582681976 81.534947364057047 -322.24862962224751 -3.0171235589151424e-05 -7.4520707227768520e-05 -3.6574761880892745e-05 -324.72489003425318 5.0356535608031550e-09 1.1363248120233038e-09 7.9390022982295250e-06 0.0018506159657669921 -1.5932560489381083e-11 1.1961671774065122e-10 7.1867352381921014e-11 0.0018687039314642729 -80.149363288800018 -162.53464431600008 87.773009718400019 109.57810873427631 0.0000000000000000 0.0000000000000000 0.0000000000000000 0.0000000000000000 3.1633341153851324 3.3323562111386185 1.1690784160060408 1.0779992253672837 1166.1530964878580 1166.0378202463814 1.0812723995226645 
-85.494604064422902 -160.94002373196753 89.127110712838814 -85.494604064422859 -160.94002373196750 89.127110712838800 -276.13006922699930 -1.8641201471602046e-05 -4.9122625075892863e-05 -7.2489556579472184e-05 0.0000000000000000 5.2659364646601148e-09 1.1034613223159797e-09 7.4401433813875420e-06 0.0018112177943532749 -2.8212943340967997e-12 5.2726318478515650e-11 1.0219619526328417e-10 0.0000000000000000 -84.295478612813938 -160.18443337667750 94.973195224810283 106.11323630727971 0.0000000000000000 0.0000000000000000 0.0000000000000000 0.0000000000000000 3.1404782043821950 3.2860872110006012 1.1456617789935604 1.0717955232511467 999.63034467693456 999.73537014265924 1.0703105626553973 
-87.700689603715219 -152.06154211066513 86.661081063786000 -87.700689603715261 -152.06154211066507 86.661081063786000 -256.97147104196694 -2.3113374074862547e-05 -6.4066421116308199e-05 -6.8838783357434591e-05 0.0000000000000000 5.3869390059801958e-09 9.8051100572149608e-10 7.6021790036406847e-06 0.0018225538881043930 7.1617385806687009e-11 3.0307675000691509e-11 6.2566513881058925e-11 0.0000000000000000 -86.474010682800568 -151.39014911596544 92.634484883397832 94.367740677547317 0.0000000000000000 0.0000000000000000 0.0000000000000000 0.0000000000000000 3.1485890424600362 3.3025989020665780 1.1540671993271909 1.0733773179122259 992.37080839231533 992.64079337941712 1.0742737303029595 
-26.480712901646676 -132.92077030507139 135.17601109625502 -26.480712901646672 -132.92077030507136 135.17601109625502 -78.508364003242136 1.3506099269225560e-05 -1.2977262448849768e-05 5.8539196028000713e-05 -87.661394755958568 2.0291138214112436e-09 7.1541839119504392e-10 4.4144044313298991e-06 0.0012603283456309445 7.8148247927225922e-11 -1.5592958439800073e-11 -2.2283922909338698e-10 0.0012206906729568217 -26.018656529999991 -132.43089511199997 138.64462455200004 49.421240865332216 0.0000000000000000 0.0000000000000000 0.0000000000000000 0.0000000000000000 3.1557764198536691 3.3168662457951181 1.1611424848738194 1.0793183907572257 715.09282248234911 715.09308774741942 1.0775675505161590 
-33.039419934194612 -134.46129780721992 134.07762798747737 -33.039419934194605 -134.46129780722001 134.07762798747731 -69.770954691645585 -6.6899500016615498e-07 1.1031244928388433e-05 2.1185296610437171e-05 -26.954869060514280 2.3888469535826569e-09 7.3676775791398086e-10 4.4865759960543983e-06 0.0013512898951727763 1.3708471997821971e-10 1.9177874747168598e-10 9.5531667437570871e-11 0.00084552917141108392 -32.495446914399992 -133.95681332000001 137.60295016000006 48.530522504776933 0.0000000000000000 0.0000000000000000 0.0000000000000000 0.0000000000000000 3.1682317997829585 3.3433344967681777 1.1751803760340147 1.0836779184558571 743.89144795061850 743.89141927770663 1.0840528732365526 
-28.910609037006815 -136.96702416575272 136.93207541290414 -28.910609037006807 -136.96702416575272 136.93207541290414 -76.841036463990392 1.4167372727342434e-05 1.7630994211114829e-05 1.7673230622320718e-05 -83.937878528755391 2.1623875468002041e-09 7.7145623222918402e-10 4.2990185704638861e-06 0.0013692932798602033 1.1573036475295106e-11 1.2896601674336997e-10 1.0252900963240340e-10 0.0013768011345188166 -28.418203856399998 -136.43877710800004 140.31002455199999 44.353383947079159 0.0000000000000000 0.0000000000000000 0.0000000000000000 0.0000000000000000 3.1573236150217650 3.3200475785866108 1.1627757196968922 1.0803208955784209 717.72659174206478 717.72682358406405 1.0783219372086015 
-27.239903973939771 -129.96356826499235 140.66301068780325 -27.239903973939771 -129.96356826499235 140.66301068780328 -90.245674370526601 1.0641938795413543e-05 1.2887822095543823e-05 7.5176853390849789e-06 0.0000000000000000 2.0707527914609614e-09 6.7445382612163495e-10 4.0538696932657103e-06 0.0012940828075465787 3.1141105529801544e-11 3.7735449841489021e-11 -1.1836466105816661e-11 0.0000000000000000 -26.768365491316434 -129.50173712462359 143.84833436668455 49.139845408488213 0.0000000000000000 0.0000000000000000 0.0000000000000000 0.0000000000000000 3.1593782993789437 3.3247879866912711 1.1654745139145222 1.0804546074408403 755.31371027520572 755.31312831957302 1.0795695528520464 
-40.708520132446026 -65.324913979713315 151.31817575032969 -40.708520132446026 -65.324913979713315 151.31817575032969 -156.52623284738854 -3.9711232375922508e-06 -3.7510909065453294e-06 1.8631642547501498e-05 -158.91350289127709 2.8094839787939914e-09 -2.2075330452508979e-10 3.3537498715929810e-06 0.0013609876400784752 -2.3682455587578086e-12 6.8291469376476676e-12 -4.5518434612479644e-11 0.0013651718624517288 -40.068761925200000 -65.476070995999990 153.95338104800004 156.95717166164070 0.0000000000000000 0.0000000000000000 0.0000000000000000 0.0000000000000000 3.1556056770053451 3.3167200667802130 1.1611711812665351 1.0772099755908024 849.92547186358922 849.93110758679722 1.0775775477733729 
-53.222816617950897 -59.448895166753807 146.37330936236378 -53.222816617950905 -59.448895166753807 146.37330936236373 -158.70697643261551 -1.0708640671005283e-05 -1.1033319964430773e-06 1.0008358085596864e-05 -160.27371122194319 3.4958749228763959e-09 -3.0213143098478668e-10 3.6786626438356502e-06 0.0013555854702678308 2.8068246524702232e-11 -6.5808840676225406e-12 -1.1614347378667610e-11 0.0013593311574983792 -52.426757905599978 -59.655776269200025 149.26381449600007 118.05125250056595 0.0000000000000000 0.0000000000000000 0.0000000000000000 0.0000000000000000 3.1575575389807389 3.3208066975771735 1.1633083306938994 1.0772511443196031 860.62056423424303 860.62398436134674 1.0785694634651239 
-35.750754184437298 -65.883914322781948 141.87694180087007 -35.750754184437305 -65.883914322781948 141.87694180087007 -147.49047539851694 9.2582104001205103e-07 -1.0757462263720483e-06 -9.7916940734609255e-07 -147.05943880664833 2.5375592183074502e-09 -2.1301493902114998e-10 3.9741058248665695e-06 0.0013373724527586455 2.9826053445043018e-12 -1.3361294112134823e-13 1.3234737576649940e-12 0.0013333258131178487 -35.172917262399999 -66.029770167599992 144.99959110400002 155.12084301790807 0.0000000000000000 0.0000000000000000 0.0000000000000000 0.0000000000000000 3.1567874665704063 3.3190163916975712 1.1622828452179201 1.0777772654135045 838.68685676399218 838.67926579218567 1.0780923615564164 
-51.183415333421429 -66.449637267572484 138.92860059453770 -51.183415333421415 -66.449637267572527 138.92860059453776 -151.28552326443835 -8.8877914343948943e-06 7.3513133560785564e-06 5.1464766513660189e-06 0.0000000000000000 3.3840206192792266e-09 -2.0518042820327767e-10 4.1678327207250732e-06 0.0013460301937081958 1.7607710611518006e-11 -1.6547483039442539e-11 4.4230562713380984e-13 0.0000000000000000 -50.412828244765279 -66.590128188430739 142.20347059834828 136.07757377940416 0.0000000000000000 0.0000000000000000 0.0000000000000000 0.0000000000000000 3.1508441545941257 3.3063277536254811 1.1555190362792223 1.0757736037016710 823.16237314014518 823.14493207235648 1.0749482517331499 
-95.888663554746046 -159.45828977029367 70.836448630706599 -95.888663554746032 -159.45828977029370 70.836448630706613 -406.68456546107484 -1.7179526908138841e-05 -2.0961171508143474e-05 -3.3228692311610913e-05 -406.48971229965940 5.8360379862065770e-09 1.0829430685532770e-09 8.6419694387274149e-06 0.0019388177461991758 1.8621868929118964e-11 8.2025831059651546e-13 6.6713653893212079e-11 0.0019535500319900348 -94.559718839999974 -158.71675115199997 77.626866652000004 109.98746742214213 0.0000000000000000 0.0000000000000000 0.0000000000000000 0.0000000000000000 3.1562146765509547 3.3179083724856611 1.1617486112529998 1.0779992253672850 1287.5456297696221 1287.3382872080579 1.0778433609805125 
-90.949393919969822 -159.20554697697244 75.909872975165754 -90.949393919969836 -159.20554697697247 75.909872975165769 -364.32153858229520 -5.1484000746920934e-05 -4.8966021713369599e-05 -6.0661696966780121e-05 -350.39060717798230 5.5651280250756940e-09 1.0794463101149177e-09 8.3086095283846345e-06 0.0018872684853486203 3.9017179003673895e-11 2.5321266520071005e-11 1.1989662241160491e-10 0.0019103763270112671 -89.682139475999989 -158.46640519600001 82.438353807199988 112.88451412247700 0.0000000000000000 0.0000000000000000 0.0000000000000000 0.0000000000000000 3.1573667535228056 3.3201097887435242 1.1627950726427589 1.0779992253672854 1212.0653541183224 1212.0820287596082 1.0783270189433192 
-104.14189211846153 -155.64945693457727 80.307554256829704 -104.14189211846147 -155.64945693457724 80.307554256829732 -355.46545589427933 -1.0530925728300522e-05 -8.8992516204159676e-06 -7.5083674932332583e-05 0.0000000000000000 6.2887136609290906e-09 1.0302017017238541e-09 8.0196507159513430e-06 0.0018977758931181493 5.9832167380561933e-11 -6.3559033723603794e-12 5.8940125764329148e-11 0.0000000000000000 -102.70986659571734 -154.94403864466588 86.608986019839278 111.02505284862640 0.0000000000000000 0.0000000000000000 0.0000000000000000 0.0000000000000000 3.1576189612971932 3.3208324831416856 1.1632692955202797 1.0768786030014008 1207.6763360532382 1209.1580684235846 1.0785565503649392 
-101.80996499967635 -167.99642161662464 77.208649180630346 -101.80996499967630 -167.99642161662459 77.208649180630346 -388.08818435975331 -4.7239541101182024e-06 -1.3637107033018506e-05 -7.2116689608335576e-05 0.0000000000000000 6.1608121937339896e-09 1.2012031369579290e-09 8.2232707310225805e-06 0.0019092772114396397 3.2844919687552857e-11 2.9867441237214441e-11 4.9235468469710663e-11 0.0000000000000000 -100.40706467681501 -167.17391327890167 83.670075146830683 105.53983917324770 0.0000000000000000 0.0000000000000000 0.0000000000000000 0.0000000000000000 3.1563007674679779 3.3180836461893226 1.1618374344998985 1.0770924399132902 1251.0605188515522 1251.0231855935888 1.0778865577262560 
-116.20677520835679 -99.983371176795629 90.813232593446159 -116.20677520835677 -99.983371176795600 90.813232593446159 -258.24009291986539 -1.1535264105663841e-05 -1.5896311747252001e-05 -5.0605589671438781e-05 -264.22698601190535 6.9504483272535506e-09 2.5924606905647352e-10 7.3293532363294398e-06 0.0018260366424322873 3.5612336170384994e-11 6.8910461346549733e-11 1.7702001410103447e-10 0.0018348152052881682 -114.62406224400000 -99.805851428000011 96.572263865600007 85.211636250682801 0.0000000000000000 0.0000000000000000 0.0000000000000000 0.0000000000000000 3.1578351432509821 3.3211952043981445 1.1634028934357745 1.0743594732670549 1033.1865636062464 1033.2017581556627 1.0786006294562736 
-112.62554640774786 -91.191788450643998 94.660888923597895 -112.62554640774785 -91.191788450644012 94.660888923597895 -232.51915303851962 -4.5241372452198660e-06 4.4298219552910642e-07 -5.5174992697947787e-05 -229.72923469104350 6.7540307790991960e-09 1.3749923422068377e-10 7.0765349562407209e-06 0.0017524780335358761 -8.5247338929346241e-13 -2.7242514043157820e-11 1.6768843055750800e-10 0.0017229648737086005 -111.08756211600000 -91.097641973600034 100.22126851279998 99.535403830130534 0.0000000000000000 0.0000000000000000 0.0000000000000000 0.0000000000000000 3.1631230152168590 3.3321311534756384 1.1690711935252851 1.0766348700547694 1007.2202789058374 1007.2221188430591 1.0812450421465911 
-114.46531054829774 -97.812739875324667 103.27096358347293 -114.46531054829778 -97.812739875324695 103.27096358347291 -193.52578335852715 -6.2005384934226923e-06 -4.8286927597140612e-06 -5.6216723197884924e-05 -193.65126452437428 6.8549358411829067e-09 2.2918800191007449e-10 6.5107920619311699e-06 0.0016246825765404865 3.7840485574568828e-11 9.4648086902576146e-11 1.7057310018553572e-10 0.0016190428046067547 -112.90434805199999 -97.655804887999992 108.38681131359999 128.09762094244454 0.0000000000000000 0.0000000000000000 0.0000000000000000 0.0000000000000000 3.1575648772640501 3.3210092506438111 1.1635067142353557 1.0769739527829070 924.93378813652646 924.94282703057797 1.0786551316376598 
-108.64290841611448 -104.05735590098330 95.007690534298746 -108.64290841611452 -104.05735590098325 95.007690534298789 -226.56611808633482 -5.2320605411042296e-05 -6.5262646380296160e-06 -5.8919860790499741e-05 0.0000000000000000 6.5355915124243333e-09 3.1567104485930031e-10 7.0537476375420738e-06 0.0017739808439295930 1.2331067356001110e-10 6.4056299010630511e-11 1.1363568808401891e-10 0.0000000000000000 -107.15466629968294 -103.84120130723400 100.55016500991876 102.24201981555134 0.0000000000000000 0.0000000000000000 0.0000000000000000 0.0000000000000000 3.1464012227571199 3.2962702097276804 1.1498828063039968 1.0720859159769205 934.51033706283226 934.46396467073271 1.0723123544087445 
-27.377105585216420 -115.68372867024496 97.909166915710657 -27.377105585216434 -115.68372867024492 97.909166915710600 -30.207696470572149 2.4358013202662345e-05 2.8025300493908815e-06 -3.0375247903173382e-05 0.0000000000000000 -2.1295648232597505e-08 1.9991571579169030e-07 7.6485638668688787e-06 0.0017641087698947843 -2.3017554624474147e-10 5.3172086694913472e-10 1.3368544735504917e-09 0.0000000000000000 -26.889884864405381 -115.37486796036181 103.37575244326078 96.382960025775517 0.0000000000000000 0.0000000000000000 0.0000000000000000 0.0000000000000000 3.1771825956449748 3.3617608070470522 1.1846615782994769 1.0877869882934676 690.98564647003138 690.98482606448658 1.0884197125305020 
-111.08710368608889 -103.83582713258686 149.46665177742750 -111.08710368608894 -103.83582713258687 149.46665177742756 -154.45775938441486 5.2147671131776511e-08 1.7686045835954262e-07 3.7359264952607075e-07 -155.20359985036518 6.6696504985586111e-09 3.1261360167178514e-10 3.4754081319476882e-06 0.0013461338337815670 7.2434510580082108e-13 3.3769161806598601e-12 -1.6457256272499210e-12 0.0013412557452100644 -109.56833416800004 -103.62177336400003 152.19744990400002 70.302883591683823 0.0000000000000000 0.0000000000000000 0.0000000000000000 0.0000000000000000 3.1543154884997078 3.3137386508312030 1.1594705811238115 1.0769227663889493 841.43779760856876 841.43851611146590 1.0767882063095084 