# For a description of the Tecplot format see the Tecplot User's guide.
#
Variables=x,y,z,s_u,s_v,s_w,s_p,mono_f_vel_u,mono_f_vel_v,mono_f_vel_w,const,u_nu,v_nu,w_nu,p_nu,x_nu,y_nu,z_nu,const,u_ref,v_ref,w_ref,vol_ref,x_ref,y_ref,z_ref,const,I1,I2,I3,J,p1,p2,p3
Zone f=fepoint, n=3174, e=16683, et=brick, c=black
-25.5205 -155.121 105.376 -25.520542699675495 -155.12104950400141 105.37595443021421 -89.997563956596593 -2.1922554419470482e-05 -6.1268296629266882e-05 -8.0715591445140492e-05 -65.847617965749222 7.1564102699372983e-09 3.7037712896648145e-09 2.3064922592297421e-05 0.0024064604061749500 1.8512540289963027e-10 3.4254394786797289e-10 1.7131982121919671e-10 0.0022539652703872227 -24.903554063199991 -154.16086777200002 112.24023381839994 89.724962256112903 0.0000000000000000 0.0000000000000000 0.0000000000000000 0.0000000000000000 3.2231682081367912 3.4566150882161257 1.2335484997048174 1.1113067589825283 944.37802609517848 944.04062973578743 1.1106130337748037 
-38.284510073704041 -156.26423569349936 108.20370892577326 -38.284510073704041 -156.26423569349936 108.20370892577328 -60.277037421223220 4.2939561140858108e-05 -1.4837403868123586e-05 -3.1825059722864533e-05 0.0000000000000000 1.4574816223338010e-07 1.6757688813521059e-06 2.3058416870955858e-05 0.0024144655753580682 -1.9799361658071796e-10 2.4769204207503591e-10 4.6091754012401903e-10 0.0000000000000000 -37.438273663334591 -155.10473791080037 114.93291110338620 89.036758072416930 0.0000000000000000 0.0000000000000000 0.0000000000000000 0.0000000000000000 3.2507357592389510 3.5177196738295451 1.2672730639064513 1.1219381838838127 995.23643354569856 995.58194883228123 1.1257583232402331 
-32.275263136124906 -148.75651221611051 113.57756644951419 -32.275263136124892 -148.75651221611045 113.57756644951415 -43.463205392957192 7.4330939496162241e-06 -5.3413937000673101e-06 -3.2337915704255483e-05 0.0000000000000000 8.4978869219209940e-09 3.3845881652894146e-09 2.1114382052545011e-05 0.0022367180225873495 -7.1731122845116236e-11 6.2940461131438325e-10 -3.6582651298696794e-10 0.0000000000000000 -31.542619574254449 -147.87907313389167 119.86135157363466 98.260374494724786 0.0000000000000000 0.0000000000000000 0.0000000000000000 0.0000000000000000 3.2312982732844224 3.4750086278756482 1.2438814222546390 1.1159832965293974 916.00316067537983 915.49533961226166 1.1152702119302409 
-29.329868021871842 -143.78012476535332 105.25142779618663 -29.329868021871821 -143.78012476535332 105.25142779618668 -46.089884302440034 -2.4153454713119676e-06 -3.4342675295741591e-05 7.7369902636527667e-07 0.0000000000000000 7.9129341690187260e-09 3.1350426699106033e-09 2.3094538024182043e-05 0.0021222233460718629 2.4306554581152144e-10 4.8009839932945383e-10 3.2035764080423442e-10 0.0000000000000000 -28.647655777685479 -142.96738158566356 112.12452093910819 112.69127588814607 0.0000000000000000 0.0000000000000000 0.0000000000000000 0.0000000000000000 3.2361922993042773 3.4856588286116041 1.2496767519057734 1.1165385910777847 930.05271086040466 930.12318399261005 1.1178908560220224 
-24.867670293340431 -202.00181841630817 63.928711243480869 -24.867670293340435 -202.00181841630817 63.928711243480862 -670.13818091511757 1.0880733370375828e-05 1.4209617634365023e-06 5.3098422472713513e-06 -675.88171577133187 7.0267525409395387e-09 6.0547338254224306e-09 3.2922073634367166e-05 0.0041515235212073905 -2.3026385471324047e-11 -2.2538461921314271e-11 -3.2652677710666852e-11 0.0041531589965439755 -24.261860196399997 -200.43215969199997 73.726546483199982 142.71380061529433 0.0000000000000000 0.0000000000000000 0.0000000000000000 0.0000000000000000 3.2200539966841104 3.4508267354280417 1.2309208023866853 1.1093384723074067 1967.7515796317025 1967.7518081104693 1.1094691110749955 
-24.761388086318330 -189.04022829677950 65.632648373383816 -24.761388086318330 -189.04022829677953 65.632648373383830 -654.35054821987694 2.5938517757376037e-05 -3.0517961819292464e-05 -9.2073430213587744e-06 -661.54687192744143 7.0056434264831308e-09 5.4047342157303993e-09 3.2516836407481264e-05 0.0041062990547932401 -1.2754808384159188e-10 1.3090026334048715e-10 7.8177887977845975e-11 0.0041430006662926070 -24.157397762799999 -187.63907770800003 75.309882232799993 165.73632395326644 0.0000000000000000 0.0000000000000000 0.0000000000000000 0.0000000000000000 3.2199816763973717 3.4506272097149671 1.2307918119664065 1.1093384723074053 1941.0722974874757 1941.0754935427835 1.1094093177867295 
-35.676420759033839 -196.91485419585968 72.398305403667266 -35.676420759033824 -196.91485419585956 72.398305403667251 -641.09915190032552 1.5997937473072274e-05 -2.2322084764939355e-05 -4.5719335289553358e-05 0.0000000000000000 9.1733435014784703e-09 5.7996547564442827e-09 3.0907800487867121e-05 0.0040930897445428036 -6.0848400625985804e-11 1.3491264665769941e-10 4.3650516721608798e-11 0.0000000000000000 -34.885542273181727 -195.41132893576267 81.596679120775832 139.46796289390394 0.0000000000000000 0.0000000000000000 0.0000000000000000 0.0000000000000000 3.2184363497755455 3.4474760378095692 1.2291870159295832 1.1079845545909304 1912.7000227841252 1912.7003456916495 1.1086860042053766 
-19.333657192337988 -196.02161260674518 72.200587166284322 -19.333657192337984 -196.02161260674526 72.200587166284308 -664.67015947710524 1.3534565252716695e-05 -1.4064795783866301e-05 -2.2040418509598907e-05 0.0000000000000000 5.9277067976370992e-09 5.7548439347243621e-09 3.0954822642925706e-05 0.0041251000318459326 -7.9730378761095051e-11 1.0511736531200961e-10 1.7926285917801926e-11 0.0000000000000000 -18.822600960987238 -194.52970000168264 81.412954998504986 111.95285379220412 0.0000000000000000 0.0000000000000000 0.0000000000000000 0.0000000000000000 3.2202477067279731 3.4511949173946972 1.2310947375193819 1.1093384723074047 1966.9618476388137 1966.9563463584725 1.1095480555445585 
-23.241956555411601 -103.49694803702012 31.118610742947276 -23.241956555411601 -103.49694803702013 31.118610742947276 -544.28029393459690 -2.4031682159486028e-05 2.7168526004502729e-05 -3.7514102271217584e-05 -553.48610051508069 6.7038871398583666e-09 1.1149208223315554e-09 4.0725104451411198e-05 0.0040912856497251158 6.6135252875942947e-12 -1.6811041647481119e-10 2.4102177613485939e-10 0.0041644663685628048 -22.663982073999996 -103.20790935200000 43.238681550399988 69.202643319072678 0.0000000000000000 0.0000000000000000 0.0000000000000000 0.0000000000000000 3.2197089882459586 3.4500957349852106 1.2305340338561856 1.1093384723074080 1749.8860952682448 1749.8860004001544 1.1092949429745971 
-30.860073240738679 -111.16179302772578 35.154325267753343 -30.860073240738682 -111.16179302772578 35.154325267753343 -523.85170350958469 4.6536645025739633e-06 4.1648382275460227e-05 -5.3484153061057005e-05 -519.32389289888204 8.2168308546126667e-09 1.4993009056496474e-09 3.9765314499007332e-05 0.0039999831174206283 1.4244162629688220e-10 -2.0388670024181096e-10 2.5764207000057677e-10 0.0040620040722767091 -30.151660686400003 -110.77310694400001 46.988755992800002 74.715282964229786 0.0000000000000000 0.0000000000000000 0.0000000000000000 0.0000000000000000 3.2201819548321491 3.4510491327874213 1.2310141754754562 1.1093384723074069 1710.2588716270002 1710.2548981883267 1.1095121207253060 
-19.244683123411896 -103.86081751780577 38.403993846067223 -19.244683123411900 -103.86081751780578 38.403993846067230 -508.77115784628671 -2.9722575140769470e-05 2.0607355327393693e-05 -5.7147209869612039e-05 -510.83612319893933 5.9100380422893997e-09 1.1331759974808620e-09 3.8992465174914066e-05 0.0039349487807135907 4.4511890861195865e-11 -2.1373222783928226e-10 2.3746256035559068e-10 0.0039601762564947535 -18.735150314000002 -103.56704831999998 50.008419303199993 79.719497061372692 0.0000000000000000 0.0000000000000000 0.0000000000000000 0.0000000000000000 3.2197317320337340 3.4501355621820982 1.2305509108768289 1.1093384723074058 1685.9543228762170 1685.9599496223125 1.1093020168155689 
-26.119116706119890 -98.714452675686630 39.451987468722486 -26.119116706119900 -98.714452675686573 39.451987468722479 -516.66392659729354 4.4261931547816797e-06 7.2602351066864275e-06 -9.0847772218298210e-05 0.0000000000000000 7.2752870672321288e-09 8.7510043655925074e-10 3.8743227088744447e-05 0.0039976698305495941 1.8179989052115531e-11 -1.0432115901032275e-10 2.1959072464778788e-10 0.0000000000000000 -25.491879232152165 -98.487589184379729 50.982237960580505 72.292163684038698 0.0000000000000000 0.0000000000000000 0.0000000000000000 0.0000000000000000 3.2198028256964291 3.4503200414612234 1.2306656371302152 1.1093384723074065 1698.5094676337876 1698.5064154958889 1.1093530186546909 
-25.955740405943022 -104.51331889823760 101.61012634143614 -25.955740405943029 -104.51331889823766 101.61012634143616 -36.763703576157532 9.6771636892836046e-06 4.2771481528063640e-05 1.1761378466150305e-05 0.0000000000000000 5.4515315994186327e-07 -3.1427300030375528e-07 2.4487781887976718e-05 0.0018848793170864460 -8.8228949773431085e-10 -5.0232462610106973e-10 1.3194404509980378e-09 0.0000000000000000 -25.283559732051039 -104.23282252886388 108.75695162467670 96.378087069502698 0.0000000000000000 0.0000000000000000 0.0000000000000000 0.0000000000000000 3.2330141761797644 3.4784601346957946 1.2456156076229161 1.1176346383081210 896.08717282121950 896.08299310708139 1.1160574164515322 
-26.600726192848807 -118.47673418907789 103.63742888335729 -26.600726192848807 -118.47673418907789 103.63742888335722 -17.995767786150616 2.0877706652725857e-06 -5.8014650556792622e-06 -3.2006818998492193e-06 0.0000000000000000 5.5116295407641253e-07 -1.3931474750848133e-07 2.4467506529597771e-05 0.0017213938764205007 -8.1568943154752542e-10 4.9084360414182996e-10 1.3868216403958504e-09 0.0000000000000000 -25.913646985361510 -118.01095136745833 110.66456878241424 88.846747377876298 0.0000000000000000 0.0000000000000000 0.0000000000000000 0.0000000000000000 3.2526071486122414 3.5199587443833491 1.2675859333755006 1.1227100571464095 937.52349315524680 937.52076380735502 1.1258861929994342 
-37.162380975480104 -113.05104238758122 105.11728905702500 -37.162380975480112 -113.05104238758122 105.11728905702508 -20.963220138148525 -2.0333792817797185e-05 -5.6564296031146507e-06 -2.4307901997895908e-06 0.0000000000000000 1.5269472223586517e-06 -1.1196291157662102e-06 2.4063238312051892e-05 0.0014416175130296225 5.5254679681064254e-10 -1.2383247438723477e-10 -3.6909812187737894e-10 0.0000000000000000 -36.236867317722961 -112.72601430119678 112.03758904139967 95.996160021407249 0.0000000000000000 0.0000000000000000 0.0000000000000000 0.0000000000000000 3.2509336103463520 3.5166213875607193 1.2659328776332324 1.1241973377026042 942.34807696720588 942.34969589809418 1.1251360564051072 
-34.217660269161598 -105.31248276946729 98.179945133121279 -34.217660269161577 -105.31248276946734 98.179945133121251 -31.545010008971193 -8.4847099262617815e-06 4.1211394470849637e-05 1.4680869362130284e-05 0.0000000000000000 9.2514677670505244e-07 -1.3815102167331195e-06 2.6210631757410747e-05 0.0018922556513674958 -4.8996439227737231e-10 -8.8501187598453198e-10 9.3204167896554143e-10 0.0000000000000000 -33.380789828628046 -105.09637623893835 105.63342596379557 85.433794965156210 0.0000000000000000 0.0000000000000000 0.0000000000000000 0.0000000000000000 3.2507840269506270 3.5157098546710821 1.2651394314904036 1.1222608023450720 929.64853796106115 929.64982336767105 1.1247834449739615 
-114.35748500918058 -161.70931254946566 118.74632033166598 -114.35748500918059 -161.70931254946569 118.74632033166601 -217.62897551093667 5.7840964591897415e-06 -1.7146950991158958e-05 -3.1085765650586238e-05 -215.91717750693337 2.4799249959128741e-08 4.0341554541356572e-09 1.9885128089924816e-05 0.0029345171809718792 -3.8097553460028813e-11 1.1792727812122422e-10 1.7189652022802622e-10 0.0029285773997349443 -112.21942232800005 -160.66347960400000 124.66427103520003 147.55923210393107 0.0000000000000000 0.0000000000000000 0.0000000000000000 0.0000000000000000 3.2251653784265746 3.4622572251039139 1.2372750318857264 1.1093384723074042 1197.7964420983667 1198.3259147819626 1.1123514524300016 
-101.44967141749687 -159.10668626445971 110.05148694362569 -101.44967141749690 -159.10668626445971 110.05148694362563 -235.20810135349899 -2.5749981544212164e-05 -2.6234415956329029e-05 -6.1344380191921403e-05 0.0000000000000000 2.2235786073521169e-08 3.9036416321636125e-09 2.1952968539906692e-05 0.0030631053062384443 2.6229095772693194e-10 1.0511333355340994e-10 1.2319864286177807e-10 0.0000000000000000 -99.532617471171264 -158.09468895943013 116.58484116745363 117.70414803503969 0.0000000000000000 0.0000000000000000 0.0000000000000000 0.0000000000000000 3.2076352852003969 3.4216243532458082 1.2139875431046863 1.1033496797314939 1164.9623342644629 1164.9615244407642 1.1017900421635405 
-106.34340748419112 -149.74527335905796 114.68646093807773 -106.34340748419116 -149.74527335905802 114.68646093807773 -199.12414361075406 -2.0290249627835008e-05 -3.5554058507687544e-05 -1.9358454565749801e-05 0.0000000000000000 2.3207661986601735e-08 3.4341718357921991e-09 2.0850660282789590e-05 0.0029013863699448536 3.5677577619707427e-11 2.5329962600075622e-10 1.3184600624143967e-10 0.0000000000000000 -104.34256255272837 -148.85497981259945 120.89176065121424 119.29379793442074 0.0000000000000000 0.0000000000000000 0.0000000000000000 0.0000000000000000 3.2078521030732081 3.4234387812825329 1.2156543457547857 1.1044087886796385 1104.9791716434559 1104.8301417639598 1.1025426564360858 
-102.46484554296066 -163.35022041034247 118.64251778659290 -102.46484554296060 -163.35022041034247 118.64251778659296 -216.13878530163291 -1.1038606837108233e-05 -4.0765802279890769e-05 -3.1519939742857656e-05 0.0000000000000000 2.2437398800034813e-08 4.1164527342374413e-09 1.9909814833241057e-05 0.0029426308678840657 6.6241363685665171e-11 2.2304256883907055e-10 1.3989210484991784e-10 0.0000000000000000 -100.53040969477119 -162.28305471776312 124.56781543385799 141.51484144144280 0.0000000000000000 0.0000000000000000 0.0000000000000000 0.0000000000000000 3.2094204097712451 3.4276917387395018 1.2183670146604328 1.1044042318071932 1140.5433314990851 1140.5583610552019 1.1037819412758407 
-79.949452861385737 -149.68697360407168 80.847901282562290 -79.949452861385709 -149.68697360407168 80.847901282562276 -273.49317210711632 -7.2206005765659468e-05 -5.2557738169929572e-05 -2.5470502545068481e-05 -276.34743276450035 1.7965879423043063e-08 3.4312679364489895e-09 2.8898283419565015e-05 0.0032371025552815603 3.2536608310577865e-10 3.3931048513040195e-10 2.2197842384683535e-10 0.0033126891075595803 -78.400527573600002 -148.79743798799998 89.448228916799977 108.06316173413846 0.0000000000000000 0.0000000000000000 0.0000000000000000 0.0000000000000000 3.2280899641033920 3.4673603752352160 1.2394322440769519 1.1093384723074069 1310.5646721563021 1310.5644546877015 1.1133407795974812 
-81.728753928047141 -163.60512390074155 79.045082017222569 -81.728753928047141 -163.60512390074155 79.045082017222541 -396.43746978209202 -3.8495155176064086e-05 -9.8900231828061324e-05 -4.8351891829426591e-05 -399.71501000964412 1.8319239653008523e-08 4.1292282926264079e-09 2.9327037189830207e-05 0.0036058601643947342 3.9550412232481923e-11 5.0002395767221052e-10 3.3056942245304389e-10 0.0036920782622378713 -80.149363288800018 -162.53464431600008 87.773009718400019 109.57810873427631 0.0000000000000000 0.0000000000000000 0.0000000000000000 0.0000000000000000 3.2289804237140483 3.4690089524204661 1.2401796065919786 1.1093384723074067 1522.9663291186919 1522.9662633436828 1.1136901414845153 
-85.947096082430434 -161.22395641287343 86.793699724907682 -85.947096082430420 -161.22395641287343 86.793699724907626 -335.45724602742661 -2.2805444351162290e-05 -6.3992047715175052e-05 -9.6132102616336497e-05 0.0000000000000000 1.9157001734937396e-08 4.0098278031308610e-09 2.7484229581986597e-05 0.0034288347094982431 7.3165409780970798e-11 2.5825076233522546e-10 3.9071413318307959e-10 0.0000000000000000 -84.295478612813938 -160.18443337667750 94.973195224810283 106.11323630727971 0.0000000000000000 0.0000000000000000 0.0000000000000000 0.0000000000000000 3.1983182297410147 3.4067288487620422 1.2085556366959060 1.1011867748885213 1305.7439672584412 1305.7444401316995 1.0992646349959720 
-88.163578969983959 -152.31383544870454 84.276851742521572 -88.163578969983959 -152.31383544870457 84.276851742521572 -310.95645090553614 -2.9297963673558240e-05 -8.3987607544268414e-05 -9.0215173613056632e-05 0.0000000000000000 1.9597189843123530e-08 3.5629925676516909e-09 2.8082796552197919e-05 0.0034011340760717467 2.3299145778152076e-10 3.1865463401181070e-10 2.3522013648419970e-10 0.0000000000000000 -86.474010682800568 -151.39014911596544 92.634484883397832 94.367740677547317 0.0000000000000000 0.0000000000000000 0.0000000000000000 0.0000000000000000 3.2089667118294893 3.4284977194363662 1.2196851199844891 1.1032532716096159 1296.5089629617180 1296.5086736842129 1.1043913774421481 
-26.655070655257120 -133.10485361940201 133.79154586419295 -26.655070655257131 -133.10485361940204 133.79154586419298 -88.630586631045034 1.6430524985575381e-05 -1.6629585988716368e-05 7.6003761540995761e-05 -99.932941896495024 7.3817241486029409e-09 2.5997044517112045e-09 1.6307011701854893e-05 0.0021117851863912034 -8.6296166705875902e-12 5.5829813797294040e-12 -5.1495804681651843e-10 0.0021089046290717547 -26.018656529999991 -132.43089511199997 138.64462455200004 49.421240865332216 0.0000000000000000 0.0000000000000000 0.0000000000000000 0.0000000000000000 3.2188857478723585 3.4481533518926493 1.2294096893356399 1.1108833684201995 952.77580850510810 952.77805436534607 1.1087935153863364 
-33.244689073581370 -134.65087094288654 132.67052799148576 -33.244689073581377 -134.65087094288660 132.67052799148584 -77.900766689536027 -1.3211933876310423e-06 1.3595639514352715e-05 2.5196452492440938e-05 -20.822512700536439 8.6904112517327547e-09 2.6772297712085447e-09 1.6573616703041694e-05 0.0021529433007826879 1.2706713530062539e-10 1.1893331521755636e-10 -1.4950542802121437e-10 0.0015200309886796235 -32.495446914399992 -133.95681332000001 137.60295016000006 48.530522504776933 0.0000000000000000 0.0000000000000000 0.0000000000000000 0.0000000000000000 3.2338444993412510 3.4806947277919078 1.2470507173911016 1.1161930168975291 985.78542945616243 985.78690989462120 1.1167086032086122 
-29.096418965026594 -137.16552670385198 135.58379801087582 -29.096418965026597 -137.16552670385201 135.58379801087582 -86.448390233291718 1.7295694073766583e-05 2.3961886222873315e-05 2.2287712788418324e-05 -95.194234471106014 7.8665721436887992e-09 2.8033355636836177e-09 1.5880771048415454e-05 0.0022424123178757531 -6.5084176339553922e-11 6.8147475633454734e-11 -2.5912062630234123e-11 0.0022742606833348051 -28.418203856399998 -136.43877710800004 140.31002455199999 44.353383947079159 0.0000000000000000 0.0000000000000000 0.0000000000000000 0.0000000000000000 3.2205755379830254 3.4516536655625014 1.2312179182525891 1.1120525065932707 954.72602181294326 954.72623261363367 1.1096052351865899 
-27.417839818170382 -130.13711329887568 139.39161797064384 -27.417839818170375 -130.13711329887568 139.39161797064386 -103.48446360233260 1.3833997138514937e-05 1.6884352698331532e-05 8.7892917046610383e-06 0.0000000000000000 7.5332096949320970e-09 2.4508841622861159e-09 1.4975179903231606e-05 0.0022211237188304663 -4.8958596216904310e-11 -9.4805716180599712e-12 -7.3735852419723429e-11 0.0000000000000000 -26.768365491316434 -129.50173712462359 143.84833436668455 49.139845408488213 0.0000000000000000 0.0000000000000000 0.0000000000000000 0.0000000000000000 3.2227897482950123 3.4571271503208778 1.2345072556201160 1.1121386477856743 1002.0200248453515 1002.0196989313033 1.1110812693509262 
-40.949933974379924 -65.268112808851967 150.26635773701724 -40.949933974379931 -65.268112808851953 150.26635773701722 -180.46236213618033 -3.5917449967621903e-06 -5.7842980299886748e-06 2.5137907126860658e-05 -183.51294203154808 1.0220658736015409e-08 -8.0217255060688331e-10 1.2388905291871311e-05 0.0026535618451986316 2.1784644850945628e-11 -9.8593459624108217e-12 -9.9018243249848907e-11 0.0026773147588064548 -40.068761925200000 -65.476070995999990 153.95338104800004 156.95717166164070 0.0000000000000000 0.0000000000000000 0.0000000000000000 0.0000000000000000 3.2186661613152321 3.4480596444720870 1.2295457024076417 1.1083511169052436 1111.6800113029929 1111.6800148771765 1.1088504813141538 
-53.523210719936486 -59.371154224674456 145.21959076221586 -53.523210719936507 -59.371154224674456 145.21959076221586 -182.36022851551698 -1.4326096578056827e-05 -1.0645889055546063e-06 1.2566451648049424e-05 -184.46775594986929 1.2717680214491267e-08 -1.0978873365985462e-09 1.3589147846104767e-05 0.0026643112487361939 8.3699083236281893e-11 -1.4191996214586359e-11 -4.8898618515302920e-11 0.0026768505971329773 -52.426757905599978 -59.655776269200025 149.26381449600007 118.05125250056595 0.0000000000000000 0.0000000000000000 0.0000000000000000 0.0000000000000000 3.2209789107538946 3.4529832400316782 1.2321620157378814 1.1083893230995143 1122.9186482697783 1122.9186464628890 1.1100305309277076 
-35.968801924630860 -65.829105204646652 140.63056498567727 -35.968801924630853 -65.829105204646666 140.63056498567724 -168.79247353036084 2.2700258539195410e-06 -2.2489084869350764e-06 -1.5464362226011789e-06 -168.19354551260182 9.2314096089562980e-09 -7.7403572440459801e-10 1.4680528520827350e-05 0.0025934257383798615 1.0735995413795478e-11 -9.2836726898768967e-13 -2.6779023930430870e-12 0.0025905961302078962 -35.172917262399999 -66.029770167599992 144.99959110400002 155.12084301790807 0.0000000000000000 0.0000000000000000 0.0000000000000000 0.0000000000000000 3.2200783073163897 3.4507548764889742 1.2308217731003792 1.1090488562041314 1096.3514364037530 1096.3514386364552 1.1094242304091273 
-51.474197675109458 -66.396844158815938 137.62146628348054 -51.474197675109487 -66.396844158815910 137.62146628348049 -172.95625171849363 -1.1395355985938442e-05 1.0107873975526608e-05 6.1854083192623247e-06 0.0000000000000000 1.2310755387323624e-08 -7.4557182649925835e-10 1.5396164538827861e-05 0.0026246931634424393 6.8246338547897118e-11 -5.1491826829777626e-11 -1.7564598845006956e-11 0.0000000000000000 -50.412828244765279 -66.590128188430739 142.20347059834828 136.07757377940416 0.0000000000000000 0.0000000000000000 0.0000000000000000 0.0000000000000000 3.2128006823363453 3.4348176235682790 1.2221183554043160 1.1065619145599281 1076.9053536660492 1076.9053512595744 1.1054909796072427 
-96.390143091344186 -159.73694214643015 68.126115587952086 -96.390143091344186 -159.73694214643018 68.126115587952086 -506.40777138303110 -2.3661914905943607e-05 -2.6723501702547865e-05 -4.5217678175521190e-05 -506.32095519729961 2.1230967400809320e-08 3.9352381353552346e-09 3.1923829949320755e-05 0.0039988791261234679 3.2008346477936153e-11 4.7241654023514174e-11 2.2616205296561561e-10 0.0040687803040778256 -94.559718839999974 -158.71675115199997 77.626866652000004 109.98746742214213 0.0000000000000000 0.0000000000000000 0.0000000000000000 0.0000000000000000 3.2193782195288798 3.4494233547153832 1.2301928999832135 1.1093384723074069 1681.3312987078486 1681.3313403854188 1.1091388490480942 
-91.427594528514589 -159.48329867929598 73.304089757907846 -91.427594528514618 -159.48329867929596 73.304089757907846 -450.51773209340467 -6.7461138492412657e-05 -6.3597000851987827e-05 -8.0481811516845805e-05 -432.79974474772439 2.0245415538466819e-08 3.9225331871506341e-09 3.0692383187869154e-05 0.0038054774780080639 1.6100750885334563e-10 1.9249170024449696e-10 4.8321911518021877e-10 0.0038739715533952033 -89.682139475999989 -158.46640519600001 82.438353807199988 112.88451412247700 0.0000000000000000 0.0000000000000000 0.0000000000000000 0.0000000000000000 3.2210248795636081 3.4525311627069311 1.2316467282685504 1.1093384723074069 1581.9371944891329 1581.9371747333719 1.1097911851427038 
-104.68226937236386 -155.91453616012893 77.792395592018295 -104.68226937236386 -155.91453616012896 77.792395592018252 -439.08335331718911 -1.4090606036530876e-05 -9.9982310857563244e-06 -9.9670391602782509e-05 0.0000000000000000 2.2877763877771070e-08 3.7435710087407861e-09 2.9624956143337045e-05 0.0038185567022934663 1.8737523972816433e-10 3.7034989687190270e-11 1.6788429911731812e-10 0.0000000000000000 -102.70986659571734 -154.94403864466588 86.608986019839278 111.02505284862640 0.0000000000000000 0.0000000000000000 0.0000000000000000 0.0000000000000000 3.2211440571662986 3.4531564733374593 1.2321621792148598 1.1078344035422480 1575.8213621330872 1575.8210872774919 1.1100395959689950 
-102.33935181012491 -168.30550046571540 74.629630297759093 -102.33935181012488 -168.30550046571537 74.629630297759121 -480.69177113882557 -6.1722020279918288e-06 -1.7056637129573001e-05 -9.6075380519619562e-05 0.0000000000000000 2.2412470518373692e-08 4.3649446279658832e-09 3.0377137777648500e-05 0.0039123833559795559 9.8647609204719459e-11 1.2057299583494898e-10 1.7071894929748192e-10 0.0000000000000000 -100.40706467681501 -167.17391327890167 83.670075146830683 105.53983917324770 0.0000000000000000 0.0000000000000000 0.0000000000000000 0.0000000000000000 3.2194481808134729 3.4495638290500179 1.2302623642804942 1.1081261409519938 1630.7029654257592 1630.7029901642597 1.1091733417830301 
-116.80401462330505 -100.05007882841717 88.514568107367580 -116.80401462330504 -100.05007882841717 88.514568107367580 -312.38038615320863 -1.5026225324776288e-05 -2.1078241309637312e-05 -6.6027565476465955e-05 -320.20528711955023 2.5285121301839632e-08 9.4207819323344211e-10 2.7074965705864429e-05 0.0035613120139330974 7.6710055309202787e-11 1.9174280087760807e-10 3.6184748093919492e-10 0.0035866759114156353 -114.62406224400000 -99.805851428000011 96.572263865600007 85.211636250682801 0.0000000000000000 0.0000000000000000 0.0000000000000000 0.0000000000000000 3.2215201377044589 3.4538580627693398 1.2324587594383447 1.1045474121955652 1348.6071724928058 1348.6049000073310 1.1101431793167511 
-113.20590738240911 -91.227166432162406 92.441514433895748 -113.20590738240911 -91.227166432162434 92.441514433895719 -278.90311961291320 -5.6069048634795291e-06 8.6689893872550466e-07 -7.1628518615999347e-05 -275.52006297078873 2.4570539575163867e-08 4.9962900483535577e-10 2.6141043443672629e-05 0.0033962185264145334 -2.5699126164635819e-12 -3.3256061364191207e-11 3.2416742990322453e-10 0.0033379040559235809 -111.08756211600000 -91.097641973600034 100.22126851279998 99.535403830130534 0.0000000000000000 0.0000000000000000 0.0000000000000000 0.0000000000000000 3.2284371260968077 3.4682262344340695 1.2399552814197068 1.1075178215248265 1314.3643123612330 1314.3650648707041 1.1135465934092961 
-115.05434238732353 -97.871712268721510 101.22901990619354 -115.05434238732350 -97.871712268721481 101.22901990619356 -227.07239578062033 -8.3527517553180104e-06 -6.8370123664662392e-06 -7.5529934654556104e-05 -227.49846289298318 2.4937646808664837e-08 8.3283513419019063e-10 2.4051163345362170e-05 0.0031323487092662040 4.8447976141523558e-11 1.4558891710486590e-10 3.1370152827594954e-10 0.0031181044164041417 -112.90434805199999 -97.655804887999992 108.38681131359999 128.09762094244454 0.0000000000000000 0.0000000000000000 0.0000000000000000 0.0000000000000000 3.2210231525783404 3.4534287760897922 1.2325718261980716 1.1080328603922316 1206.2370696183750 1206.2406643528946 1.1102039659828482 
-109.20449909675958 -104.13858159803418 92.795462706381429 -109.20449909675962 -104.13858159803418 92.795462706381400 -271.08452830247109 -6.9053452091496757e-05 -8.8090349707138060e-06 -7.6578755879096359e-05 0.0000000000000000 2.3775870799935813e-08 1.1471081862168830e-09 2.6056866024859456e-05 0.0034025518851822007 5.0506297434171967e-10 9.0479640445834420e-11 2.0640607470464033e-10 0.0000000000000000 -107.15466629968294 -103.84120130723400 100.55016500991876 102.24201981555134 0.0000000000000000 0.0000000000000000 0.0000000000000000 0.0000000000000000 3.2071050528250811 3.4212959847856301 1.2142381125981925 1.1016109549737665 1222.3622981435155 1222.3610737317142 1.1019026566726957 
-27.554235328912373 -115.80620615395972 95.737116812123517 -27.554235328912366 -115.80620615395979 95.737116812123517 -30.428512171651938 2.8960050041241293e-05 2.9226533237273258e-06 -3.5299723896076466e-05 0.0000000000000000 1.7574912861689882e-07 -1.6002010673043390e-07 2.6836743793141141e-05 0.0022641934440234116 -6.0573052342633479e-10 4.9276722503094078e-10 1.4098610389328045e-09 0.0000000000000000 -26.889884864405381 -115.37486796036181 103.37575244326078 96.382960025775517 0.0000000000000000 0.0000000000000000 0.0000000000000000 0.0000000000000000 3.2457116297214545 3.5053962417665341 1.2599005950188842 1.1215292406398405 923.24544709530869 923.21777513019413 1.1224500327453231 
-111.66021393339977 -103.91626339007396 148.37667876364068 -111.66021393339976 -103.91626339007395 148.37667876364065 -174.97734610254602 -2.8023926834638265e-07 -8.4221102201633749e-07 3.0144928479362052e-07 -175.74704645699464 2.4263572678817628e-08 1.1359519991316347e-09 1.2838316402863370e-05 0.0026766253012796377 -4.4250185475762708e-12 -1.1196478889728792e-11 -2.4251629603868292e-12 0.0026757402595964700 -109.56833416800004 -103.62177336400003 152.19744990400002 70.302883591683823 0.0000000000000000 0.0000000000000000 0.0000000000000000 0.0000000000000000 3.2171725808570830 3.4443809583904095 1.2273384745310865 1.1080261706171157 1096.2837586223254 1096.2830211452549 1.1078546108989527 