# For a description of the Tecplot format see the Tecplot User's guide.
#
Variables=x,y,z,s_u,s_v,s_w,s_p,mono_f_vel_u,mono_f_vel_v,mono_f_vel_w,const,u_nu,v_nu,w_nu,p_nu,x_nu,y_nu,z_nu,const,u_ref,v_ref,w_ref,vol_ref,x_ref,y_ref,z_ref,const,I1,I2,I3,J,p1,p2,p3
Zone f=fepoint, n=3174, e=16683, et=brick, c=black
-24.9737 -154.270 111.498 -24.973688073859698 -154.27041851120796 111.49795048612192 -87.611949926582099 -4.4860324103485002e-06 -1.9148557286651190e-05 -1.8888532596047542e-05 -86.161441368456721 1.1918350871151229e-07 1.0735064152889162e-07 2.1496156813904929e-05 0.0063232361462269154 2.6315089063486190e-10 8.4682033684155377e-10 -5.2375115575170793e-11 0.0062238314600758272 -24.903554063199991 -154.16086777200002 112.24023381839994 89.724962256112903 0.0000000000000000 0.0000000000000000 0.0000000000000000 0.0000000000000000 3.0242265264308106 3.0485480833056120 1.0243213540648228 1.0125821089847031 201.25475249137492 201.25499805310486 1.0120864877579929 
-37.544672789759773 -155.27322070400990 114.19686433333521 -37.544672789759751 -155.27322070400990 114.19686433333526 -78.835688540500016 1.5188401759918793e-05 -1.7603902350448733e-05 -9.9826559398919364e-06 0.0000000000000000 -9.8308069288985293e-09 -2.4377277723772984e-07 2.4380059844426683e-05 0.0062568739167049719 -7.4982307753845119e-10 7.0344038813897140e-10 4.9571739272291533e-11 0.0000000000000000 -37.438273663334591 -155.10473791080037 114.93291110338620 89.036758072416930 0.0000000000000000 0.0000000000000000 0.0000000000000000 0.0000000000000000 3.0347367931148690 3.0698090151435724 1.0350729998769237 1.0164498784691185 208.01276732711565 208.01274834735787 1.0173878790374919 
-31.625900251304689 -147.97918345349402 119.18184121319108 -31.625900251304675 -147.97918345349404 119.18184121319108 -72.922720946511106 5.1648568626491973e-06 -1.3019017594226223e-05 -1.8982716929851702e-06 0.0000000000000000 1.4152453663499043e-07 9.8099816256413965e-08 1.9678282721535822e-05 0.0061236635170774847 -2.8174870984783540e-10 6.9015803048857282e-10 -5.5301037727684501e-11 0.0000000000000000 -31.542619574254449 -147.87907313389167 119.86135157363466 98.260374494724786 0.0000000000000000 0.0000000000000000 0.0000000000000000 0.0000000000000000 3.0286556354267868 3.0575161054500763 1.0288606847393218 1.0148041036712085 188.65797391543165 188.65797947496648 1.0143245287052975 
-28.725203852280895 -143.06011050681857 111.38128451286872 -28.725203852280885 -143.06011050681857 111.38128451286867 -71.872549762849047 6.6121820021229152e-06 -1.5295419058502002e-05 -1.0915297352798772e-05 0.0000000000000000 1.3178273205669000e-07 9.0866651467069737e-08 2.1523757940400401e-05 0.0060380030944315209 -1.6255238043474524e-10 6.4654838197325365e-10 3.7624518359755479e-10 0.0000000000000000 -28.647655777685479 -142.96738158566356 112.12452093910819 112.69127588814607 0.0000000000000000 0.0000000000000000 0.0000000000000000 0.0000000000000000 3.0303092573106487 3.0608725358149131 1.0305638570495861 1.0148867324671178 188.98641376592786 188.98582038972958 1.0151667396976825 
-24.330723525940847 -200.61124794979659 72.667036900392674 -24.330723525940844 -200.61124794979656 72.667036900392660 -173.62360897879455 5.0578534961687747e-07 1.9183716836083631e-09 4.0995507795435227e-07 -174.24239939019438 1.1702415285766429e-07 1.7549165869101824e-07 3.0682871555720581e-05 0.0074028936546432743 -6.0193950325994393e-11 -2.3139096483389883e-11 -3.2056951667843126e-11 0.0074117809815294877 -24.261860196399997 -200.43215969199997 73.726546483199982 142.71380061529433 0.0000000000000000 0.0000000000000000 0.0000000000000000 0.0000000000000000 3.0235419378835329 3.0472116040255766 1.0236698644938949 1.0117514240261709 352.47717262746340 352.47716915821650 1.0117657252264045 
-24.226054236005023 -187.79894023987984 74.263414134668068 -24.226054236005020 -187.79894023987984 74.263414134668082 -171.52401966157512 2.5370247093843825e-06 -3.6641394969144588e-06 -1.1275249002753824e-06 -172.18242145253231 1.1667262863820915e-07 1.5665205203851948e-07 3.0305196630830977e-05 0.0073758099553351093 -1.2411132236969372e-10 1.0510584110586507e-10 6.5231268373436024e-11 0.0074185503833033174 -24.157397762799999 -187.63907770800003 75.309882232799993 165.73632395326644 0.0000000000000000 0.0000000000000000 0.0000000000000000 0.0000000000000000 3.0235427548551437 3.0472124047927740 1.0236698444975274 1.0117514240261720 348.97031044272677 348.97030784288063 1.0117656731624987 
-34.975442600153919 -195.58287177830161 80.601993574318485 -34.975442600153904 -195.58287177830155 80.601993574318428 -170.54262958532544 8.9996723686230877e-07 -2.8756539322426665e-06 -5.8534701721929005e-06 0.0000000000000000 1.5277375667657747e-07 1.6809777574067208e-07 2.8805599639136759e-05 0.0073258516740105006 -9.3309941335517146e-11 1.1493751012617145e-10 1.4830869974597154e-11 0.0000000000000000 -34.885542273181727 -195.41132893576267 81.596679120775832 139.46796289390394 0.0000000000000000 0.0000000000000000 0.0000000000000000 0.0000000000000000 3.0233424006472691 3.0468113012715614 1.0234690994076419 1.0115405050942996 346.86273423714374 346.86274205767955 1.0116664596718252 
-18.880693478512359 -194.69991791280424 80.416756168888412 -18.880693478512356 -194.69991791280424 80.416756168888426 -172.51205978535765 1.2634244179897912e-06 -1.7824638497794098e-06 -2.7199004088507355e-06 0.0000000000000000 9.8720576161698257e-08 1.6679945756548076e-07 2.8849423572507856e-05 0.0074051133147735341 -7.7491602831478982e-11 1.0182094026237004e-10 8.7567370707938609e-12 0.0000000000000000 -18.822600960987238 -194.52970000168264 81.412954998504986 111.95285379220412 0.0000000000000000 0.0000000000000000 0.0000000000000000 0.0000000000000000 3.0235837197049737 3.0472949867925929 1.0237114646701579 1.0117514240261702 351.78558825169239 351.78558743689445 1.0117863078234146 
-22.729681287962688 -103.24088686089060 41.928052125571291 -22.729681287962684 -103.24088686089058 41.928052125571291 -173.51821452059949 -4.1394497671938608e-06 4.6958429310377912e-06 -6.3558837524113742e-06 -174.73472092762955 1.1164715436537409e-07 3.2315223955081684e-08 3.7955177523363304e-05 0.0074346133931954368 -7.3056279599460460e-11 -1.1689293454201837e-10 1.7868080796069033e-10 0.0075137782397277086 -22.663982073999996 -103.20790935200000 43.238681550399988 69.202643319072678 0.0000000000000000 0.0000000000000000 0.0000000000000000 0.0000000000000000 3.0234959512346764 3.0471190223208073 1.0236232680710253 1.0117514240261718 352.56443315832399 352.56440968560452 1.0117427153874681 
-30.232186988993291 -110.81745359877677 45.709014860858304 -30.232186988993302 -110.81745359877679 45.709014860858304 -170.04232876060803 3.3709300486379250e-07 7.5180394955188709e-06 -8.5945610152458331e-06 -168.71640843578558 1.3684383781339959e-07 4.3456042694844932e-08 3.7060667895216788e-05 0.0073958342651254255 1.7410027495168038e-10 -9.7714019576609024e-11 1.5430576954464000e-10 0.0075120407121242192 -30.151660686400003 -110.77310694400001 46.988755992800002 74.715282964229786 0.0000000000000000 0.0000000000000000 0.0000000000000000 0.0000000000000000 3.0236170920677274 3.0473618732290180 1.0237449785667141 1.0117514240261716 345.96827064988287 345.96832200281511 1.0118029148664187 
-18.793069661900624 -103.60056555085700 48.753550276114993 -18.793069661900628 -103.60056555085701 48.753550276114993 -167.46178588330784 -5.0214047656942656e-06 3.8855675131277562e-06 -9.1937532941812711e-06 -167.67486089747726 9.8426297671233551e-08 3.2844110112173475e-08 3.6340384081734456e-05 0.0073664670907262570 -4.4601754757231730e-11 -1.6667503978507267e-10 1.2891356717949684e-10 0.0074030264167152067 -18.735150314000002 -103.56704831999998 50.008419303199993 79.719497061372692 0.0000000000000000 0.0000000000000000 0.0000000000000000 0.0000000000000000 3.0235055657132208 3.0471382299803200 1.0236328610613370 1.0117514240261716 341.75685686869974 341.75676661563779 1.0117474278899101 
-25.563178243324725 -98.513472891956795 49.735389999842326 -25.563178243324725 -98.513472891956837 49.735389999842326 -169.44443501268273 2.7260667228572378e-08 1.8946474745591740e-06 -1.4094298003225303e-05 0.0000000000000000 1.2116327477787459e-07 2.5363889474827594e-08 3.6108097984932641e-05 0.0073762887712153545 1.0547439505489596e-11 -6.3303277995923275e-11 6.0713106626994696e-11 0.0000000000000000 -25.491879232152165 -98.487589184379729 50.982237960580505 72.292163684038698 0.0000000000000000 0.0000000000000000 0.0000000000000000 0.0000000000000000 3.0234820510455096 3.0470916580972105 1.0236098057600698 1.0117514240261716 344.82590463132533 344.82595367702135 1.0117359991350341 
-25.375640033879037 -104.24856223388804 107.97904694519956 -25.375640033879030 -104.24856223388811 107.97904694519956 -72.212050507769916 4.8733142024430110e-06 1.6585309087785160e-05 -3.9487432939282746e-06 0.0000000000000000 -1.1577551623108331e-06 4.5403285192224356e-07 2.2316346704841212e-05 0.0059235871244116304 -6.1803199540054110e-10 -9.7479537636147493e-10 6.3094632805036256e-10 0.0000000000000000 -25.283559732051039 -104.23282252886388 108.75695162467670 96.378087069502698 0.0000000000000000 0.0000000000000000 0.0000000000000000 0.0000000000000000 3.0287042649928577 3.0575759014936357 1.0288713842090507 1.0152333354181480 184.27827394133388 184.27716324724227 1.0143293205636359 
-26.010792291258440 -118.04511275767312 109.89730570169543 -26.010792291258440 -118.04511275767310 109.89730570169549 -59.834423292994337 8.7559399194314692e-06 2.5460196228809919e-06 -6.6463268765182731e-06 0.0000000000000000 -1.0162645330531343e-06 1.1507578365023810e-06 2.2090060456899178e-05 0.0057294722696250647 -5.5793883604463484e-10 -4.8302887060141294e-11 4.9896899348791472e-10 0.0000000000000000 -25.913646985361510 -118.01095136745833 110.66456878241424 88.846747377876298 0.0000000000000000 0.0000000000000000 0.0000000000000000 0.0000000000000000 3.0398936854568475 3.0801883657856068 1.0402955332605091 1.0184520403921262 184.78962261791978 184.78907426445036 1.0199526638199996 
-36.385739936391793 -112.71228781401304 111.29098532062015 -36.385739936391793 -112.71228781401304 111.29098532062015 -60.631763124989547 -4.0031862542117010e-06 1.2083147027496687e-05 8.0429220658675510e-06 0.0000000000000000 -1.1152797538624630e-06 1.4613585226373576e-06 2.1765874354552928e-05 0.0056746777501962527 1.4099389128707709e-10 -7.6292570607210307e-10 -2.7283580666659072e-10 0.0000000000000000 -36.236867317722961 -112.72601430119678 112.03758904139967 95.996160021407249 0.0000000000000000 0.0000000000000000 0.0000000000000000 0.0000000000000000 3.0412392595427495 3.0829118844627748 1.0416737590416891 1.0196370862460498 188.91103537357870 188.91112678924065 1.0206248168998373 
-33.505586780790900 -105.07343391277730 104.80597687444926 -33.505586780790878 -105.07343391277723 104.80597687444926 -71.850765155636282 5.9542294744265695e-07 1.9190013570376730e-05 -6.6728674789223385e-06 0.0000000000000000 -1.9683372938811984e-06 6.3817280014168426e-07 2.2288158768180227e-05 0.0060061054505508244 -7.3829451308580893e-10 -1.0912823572241448e-09 7.1728000125349185e-10 0.0000000000000000 -33.380789828628046 -105.09637623893835 105.63342596379557 85.433794965156210 0.0000000000000000 0.0000000000000000 0.0000000000000000 0.0000000000000000 3.0354811776858335 3.0712335672022895 1.0357525090933981 1.0169354269207935 193.33749814229967 193.33691311549987 1.0177186236865259 
-112.46245907455922 -160.78280261176545 124.02432095157771 -112.46245907455925 -160.78280261176545 124.02432095157771 -125.55028937522410 6.2618361911426740e-07 -1.9879245458334424e-06 -5.4450531646924940e-06 -125.27632734923803 4.1300891579290622e-07 1.1692665592699657e-07 1.8532636734569511e-05 0.0064305704156564737 -2.4308798559518494e-11 8.4425390876738671e-11 9.8035876181852984e-11 0.0064288524993328386 -112.21942232800005 -160.66347960400000 124.66427103520003 147.55923210393107 0.0000000000000000 0.0000000000000000 0.0000000000000000 0.0000000000000000 3.0256120613414050 3.0513997250213021 1.0257880014472851 1.0117514240261707 273.09467696702490 273.12309262491914 1.0128150735970032 
-99.750531828030105 -158.21015153192815 115.87834312593122 -99.750531828030063 -158.21015153192818 115.87834312593122 -127.82183222481896 -5.0914413204516287e-06 -3.5351693436946686e-06 -1.0776544945181709e-05 0.0000000000000000 3.7031672997858700e-07 1.1314376370530342e-07 2.0459832568375802e-05 0.0065014001535362515 3.0186671648983284e-10 2.1824929818060539e-10 1.7308862706851631e-10 0.0000000000000000 -99.532617471171264 -158.09468895943013 116.58484116745363 117.70414803503969 0.0000000000000000 0.0000000000000000 0.0000000000000000 0.0000000000000000 3.0183044594023429 3.0365554975546822 1.0182505327058922 1.0095870125281188 261.69343342740268 261.77126384632157 1.0090814650120423 
-104.57000155477088 -148.95655674629435 120.22073747625750 -104.57000155477088 -148.95655674629427 120.22073747625747 -123.23717802928326 -4.4498136393000328e-06 -3.8405865389938248e-06 -5.0549374998709966e-06 0.0000000000000000 3.8650260631226119e-07 9.9536981698622462e-08 1.9432498038929328e-05 0.0063939282363005973 2.1448203414560058e-10 1.8870696543442824e-10 1.0780386340995715e-10 0.0000000000000000 -104.34256255272837 -148.85497981259945 120.89176065121424 119.29379793442074 0.0000000000000000 0.0000000000000000 0.0000000000000000 0.0000000000000000 3.0187425562565413 3.0374968738868242 1.0187542307493909 1.0097323282847976 254.71437564194187 254.70066517935987 1.0093303053187972 
-100.75029987811790 -162.40481165874951 123.92707087297654 -100.75029987811787 -162.40481165874954 123.92707087297649 -124.33754903615431 -2.9990123225589016e-06 -5.5533243101004693e-06 -4.8714052104195046e-06 0.0000000000000000 3.7367438435534361e-07 1.1931172545776028e-07 1.8555644400120027e-05 0.0064137997684837866 1.5590902553814826e-10 2.4612321281521942e-10 9.5694249497434947e-11 0.0000000000000000 -100.53040969477119 -162.28305471776312 124.56781543385799 141.51484144144280 0.0000000000000000 0.0000000000000000 0.0000000000000000 0.0000000000000000 3.0193076600406821 3.0386655507722788 1.0193578508340186 1.0098964029735946 257.60836516362991 257.68845690707712 1.0096302263184038 
-78.576596201484605 -148.89892844657120 88.518214345130303 -78.576596201484591 -148.89892844657123 88.518214345130303 -129.50103016299025 -1.2800783734585898e-05 -8.7661924402881400e-06 -4.2961709950207756e-06 -129.46107676935998 2.9920543559783241e-07 9.9452239235575668e-08 2.6932760314624108e-05 0.0067418835388725531 3.6114683604613667e-10 3.2651374120702335e-10 2.4459147768130620e-10 0.0067457147913220208 -78.400527573600002 -148.79743798799998 89.448228916799977 108.06316173413846 0.0000000000000000 0.0000000000000000 0.0000000000000000 0.0000000000000000 3.0251006991428970 3.0503493992125637 1.0252489917204455 1.0117514240261716 279.17703699560485 279.17904373505593 1.0125477857747198 
-80.328894958234855 -162.65677935138658 86.829196844311298 -80.328894958234827 -162.65677935138655 86.829196844311326 -149.20028310315590 -7.5621272709341037e-06 -1.4083384186708936e-05 -7.8440883605439689e-06 -149.83431866767575 3.0509041957019201e-07 1.1968222153602159e-07 2.7332352310338592e-05 0.0069662842209663161 1.6547144354106252e-10 4.0347097167278459e-10 4.1825488735641156e-10 0.0070376726573484630 -80.149363288800018 -162.53464431600008 87.773009718400019 109.57810873427631 0.0000000000000000 0.0000000000000000 0.0000000000000000 0.0000000000000000 3.0253903924694474 3.0509207008670036 1.0255305315514587 1.0117514240261694 314.34241185829762 314.34200865831650 1.0126878060982274 
-84.483220412859936 -160.30303646320110 94.088688223759220 -84.483220412859922 -160.30303646320104 94.088688223759178 -140.32707013585826 -5.7194255795043679e-06 -9.7895670311420506e-06 -1.4628738903864362e-05 0.0000000000000000 3.1904244874106374e-07 1.1622120053844665e-07 2.5614883661040366e-05 0.0068302883751053317 1.8986413839105618e-11 2.8406966101190578e-10 1.8782486978196006e-10 0.0000000000000000 -84.295478612813938 -160.18443337667750 94.973195224810283 106.11323630727971 0.0000000000000000 0.0000000000000000 0.0000000000000000 0.0000000000000000 3.0189986987830939 3.0380858772298507 1.0190872526244377 1.0099374404531951 284.02959278680288 284.02139495553098 1.0094947247360044 
-86.666066408397896 -151.49553595803442 91.730714592747375 -86.666066408397896 -151.49553595803442 91.730714592747347 -136.92013008180069 -6.3556799173997698e-06 -1.2691696323158717e-05 -1.4190745305558832e-05 0.0000000000000000 3.2637339084443101e-07 1.0327038087176721e-07 2.6172738969654219e-05 0.0068130382748483181 1.6195996961221258e-10 4.1779991762330780e-10 1.3308201831790584e-10 0.0000000000000000 -86.474010682800568 -151.39014911596544 92.634484883397832 94.367740677547317 0.0000000000000000 0.0000000000000000 0.0000000000000000 0.0000000000000000 3.0213799917674238 3.0428743462148429 1.0214945531660529 1.0103453072187301 282.17104715338695 282.16964284632019 1.0106900439794624 
-26.090998664694297 -132.50778956876863 138.11982665021398 -26.090998664694300 -132.50778956876863 138.11982665021398 -88.222514258863299 5.0821024177592615e-06 -4.4431487966327872e-06 2.0357159160921098e-05 -91.506399541357240 1.2293592413850640e-07 7.5350186604095093e-08 1.5197886711781905e-05 0.0063714066173990664 -3.0463127199225597e-11 -1.1785432149718004e-11 -4.8787817471101919e-10 0.0063518739075639772 -26.018656529999991 -132.43089511199997 138.64462455200004 49.421240865332216 0.0000000000000000 0.0000000000000000 0.0000000000000000 0.0000000000000000 3.0232834567177802 3.0466897108054716 1.0234064845793076 1.0126874565175483 203.01757535221901 203.01753560745644 1.0116375568993434 
-32.580614378551182 -134.03600096032480 137.06957228354759 -32.580614378551189 -134.03600096032474 137.06957228354759 -85.721866753078757 -8.2964743156149451e-07 2.7372372179230508e-06 1.2593090350306641e-05 -77.531710936508219 1.4473087952063257e-07 7.7597323691613886e-08 1.5446358537563043e-05 0.0064086841181346171 5.9046534353035924e-11 -6.3379244425819689e-11 -2.0132083658337621e-10 0.0062163323061736886 -32.495446914399992 -133.95681332000001 137.60295016000006 48.530522504776933 0.0000000000000000 0.0000000000000000 0.0000000000000000 0.0000000000000000 3.0301545959408491 3.0605311356225462 1.0303769521533217 1.0151196818312096 213.59560840592175 213.59563397158180 1.0150702638989035 
-28.495297570685725 -136.52169469827612 139.79894407469826 -28.495297570685736 -136.52169469827615 139.79894407469826 -89.138851086705003 6.5824973121693486e-06 3.0776641066147886e-06 6.3432702624357805e-06 -92.418221498125220 1.3101060756734451e-07 8.1252377090446082e-08 1.4800636901846076e-05 0.0064254654409153190 3.7050749582001943e-11 -2.0070733176699603e-10 -1.4484170642881656e-10 0.0063802765479691872 -28.418203856399998 -136.43877710800004 140.31002455199999 44.353383947079159 0.0000000000000000 0.0000000000000000 0.0000000000000000 0.0000000000000000 3.0248483598449782 3.0498269374117033 1.0249787405565802 1.0134591652487384 208.68271520120345 208.68266303438747 1.0124107747662214 
-26.842192198438578 -129.57422957812969 143.36639793747037 -26.842192198438578 -129.57422957812969 143.36639793747040 -92.989543054212945 2.0293098464769432e-06 2.5227088194493297e-06 4.3302399128568149e-06 0.0000000000000000 1.2545876047417859e-07 7.1036589208151035e-08 1.3956639747902956e-05 0.0064804756212579482 -7.3642000630909712e-11 -5.1126202679789894e-11 -2.7178596627442761e-11 0.0000000000000000 -26.768365491316434 -129.50173712462359 143.84833436668455 49.139845408488213 0.0000000000000000 0.0000000000000000 0.0000000000000000 0.0000000000000000 3.0252629595823772 3.0506938954502711 1.0254312239177670 1.0134589039068322 217.36820698166875 217.36814412459168 1.0126346403204389 
-40.168926055034284 -65.452344265562274 153.55467700425532 -40.168926055034277 -65.452344265562274 153.55467700425532 -118.40045971804655 -2.3622281029877625e-06 -5.5682372971868188e-08 3.7762846180494168e-06 -119.06904245097185 1.7021573870193432e-07 -2.3250227826343565e-08 1.1546271168949575e-05 0.0064980413109191259 -3.0856894067246599e-11 -8.9654084192573202e-12 -3.9613800381369233e-11 0.0065137096216332131 -40.068761925200000 -65.476070995999990 153.95338104800004 156.95717166164070 0.0000000000000000 0.0000000000000000 0.0000000000000000 0.0000000000000000 3.0227971868112102 3.0457208395675801 1.0229238858312901 1.0113613633334075 254.71540508297127 254.66702302226898 1.0113971741337429 
-52.551393318348929 -59.623302671407558 148.82648383099854 -52.551393318348921 -59.623302671407565 148.82648383099854 -119.70905785161879 -2.3244360055497860e-06 -6.6490033062623212e-07 3.1058205370348620e-06 -120.00458730507451 2.1180145866675495e-07 -3.1821433280065925e-08 1.2664878960455539e-05 0.0064494418218830844 3.6640132771956362e-11 -3.6817058997142379e-11 3.7559450038957617e-12 0.0064809546148612016 -52.426757905599978 -59.655776269200025 149.26381449600007 118.05125250056595 0.0000000000000000 0.0000000000000000 0.0000000000000000 0.0000000000000000 3.0240989141868395 3.0483415046014235 1.0242428434110857 1.0114332044615322 259.82041264970218 259.79718729326856 1.0120492462265562 
-35.263386648843877 -66.006875548496112 144.52713724795507 -35.263386648843884 -66.006875548496083 144.52713724795510 -115.95261093641258 -7.8793159873087155e-07 4.3923890525685057e-07 4.1370534582637510e-07 -115.90314231463822 1.5374080164845536e-07 -2.2434827912087844e-08 1.3682029138539777e-05 0.0064856568911882415 -2.5834180600865440e-11 3.2332185142242011e-11 -2.6477352904080720e-11 0.0065152910890153666 -35.172917262399999 -66.029770167599992 144.99959110400002 155.12084301790807 0.0000000000000000 0.0000000000000000 0.0000000000000000 0.0000000000000000 3.0238699165048688 3.0478655812268269 1.0239958624759420 1.0117160667779088 253.03664633142321 253.16739061674741 1.0119268911503774 
-50.533475677377425 -66.568075687726235 141.70798589572877 -50.533475677377425 -66.568075687726221 141.70798589572874 -117.60838883439924 -2.3908458291770805e-06 1.1144450766699638e-06 1.9868717437601084e-06 0.0000000000000000 2.0502441406070046e-07 -2.1609623618301658e-08 1.4348991011825518e-05 0.0064398465633116846 1.8183962037331170e-11 -3.1805335152970976e-11 -8.0967899872928303e-12 0.0000000000000000 -50.412828244765279 -66.590128188430739 142.20347059834828 136.07757377940416 0.0000000000000000 0.0000000000000000 0.0000000000000000 0.0000000000000000 3.0209632757192053 3.0419924311976825 1.0210291053494591 1.0107315730611568 249.53276782677835 249.58162876719629 1.0104591557248168 
-94.767785871329565 -158.83314857328838 76.599482893246957 -94.767785871329565 -158.83314857328836 76.599482893246972 -168.13702903576120 -3.1479898862768050e-06 -4.0772478281879312e-06 -6.0251187970417397e-06 -168.10762697122306 3.5358250608311104e-07 1.1405983153800481e-07 2.9752523640791392e-05 0.0072918178961385183 -1.8991878442579535e-11 9.2545350184602773e-11 2.0045486562879142e-10 0.0073835508314436795 -94.559718839999974 -158.71675115199997 77.626866652000004 109.98746742214213 0.0000000000000000 0.0000000000000000 0.0000000000000000 0.0000000000000000 3.0234033659720176 3.0469332174440469 1.0235300491622197 1.0117514240261702 342.85230102258987 342.85472367726294 1.0116965108320675 
-89.880547932853219 -158.58242639186119 81.450600894915382 -89.880547932853219 -158.58242639186119 81.450600894915382 -159.44911920200633 -1.1209818488090074e-05 -9.5667636921924514e-06 -1.2448523850707025e-05 -156.43973953139579 3.3716902425942608e-07 1.1369116507953247e-07 2.8604834003242988e-05 0.0071393436289502819 1.0090625304492110e-10 2.2462049056417676e-10 5.1204096283657237e-10 0.0072788807041931809 -89.682139475999989 -158.46640519600001 82.438353807199988 112.88451412247700 0.0000000000000000 0.0000000000000000 0.0000000000000000 0.0000000000000000 3.0236513475291669 3.0474245904674553 1.0237734224459876 1.0117514240261696 327.13567682162375 327.13979926882519 1.0118164934717322 
-102.93407253596403 -155.05476635034395 85.655585414765270 -102.93407253596401 -155.05476635034395 85.655585414765312 -158.43580750980442 -2.5731408368782883e-06 -2.1450752857454538e-06 -1.4265988712228298e-05 0.0000000000000000 3.8100844174451809e-07 1.0850398181327937e-07 2.7610008231926390e-05 0.0071217746723714666 1.6787088627687004e-10 9.8835136548884137e-11 9.6267878200496519e-11 0.0000000000000000 -102.70986659571734 -154.94403864466588 86.608986019839278 111.02505284862640 0.0000000000000000 0.0000000000000000 0.0000000000000000 0.0000000000000000 3.0239616555948561 3.0480569903041341 1.0240955381677095 1.0114395375485936 328.01534554549539 328.00941211798630 1.0119768807500267 
-100.62671061256397 -167.30302031006272 82.692467571679543 -100.62671061256394 -167.30302031006258 82.692467571679558 -164.85909730866791 -1.5769531069671037e-06 -2.7334457521692019e-06 -1.3579450114965052e-05 0.0000000000000000 3.7325932633960890e-07 1.2651418955511584e-07 2.8311030080496735e-05 0.0072236137250018409 1.0147486143548113e-10 1.2729912142884609e-10 1.4952838253477949e-10 0.0000000000000000 -100.40706467681501 -167.17391327890167 83.670075146830683 105.53983917324770 0.0000000000000000 0.0000000000000000 0.0000000000000000 0.0000000000000000 3.0234855460884367 3.0470987732432775 1.0236134259022023 1.0115014305020553 336.64565721318036 336.64041280472333 1.0117379394939159 
-114.87186065448802 -99.833716249167523 95.700927936558813 -114.87186065448803 -99.833716249167523 95.700927936558841 -141.02622171942065 -2.3624222753236204e-06 -3.1670300250245571e-06 -1.0205845065654433e-05 -142.23009838159444 4.2110074322816344e-07 2.7305223651574725e-08 2.5233455955175895e-05 0.0067329916476884842 3.1992262273323679e-11 1.2579874725062999e-10 2.2817258500022319e-10 0.0067516528706934179 -114.62406224400000 -99.805851428000011 96.572263865600007 85.211636250682801 0.0000000000000000 0.0000000000000000 0.0000000000000000 0.0000000000000000 3.0239932535476468 3.0480904428953797 1.0240971105695720 1.0105538351835739 296.64388569799070 296.64388617354876 1.0119757673588252 
-111.32835755486566 -91.112419905431153 99.379988393588718 -111.32835755486569 -91.112419905431139 99.379988393588732 -135.77512753828225 -1.0935316006881790e-06 -1.4218040190492219e-07 -1.1262231562654331e-05 -135.02794812346062 4.0920011368586478e-07 1.4481156010437425e-08 2.4363054628606665e-05 0.0066294556674886696 -7.0616616532441181e-12 1.8113367407163337e-11 1.4332451110048888e-10 0.0066266966523635248 -111.08756211600000 -91.097641973600034 100.22126851279998 99.535403830130534 0.0000000000000000 0.0000000000000000 0.0000000000000000 0.0000000000000000 3.0260456392492041 3.0522584254731484 1.0262131443174720 1.0113301704443838 291.57883684987104 291.57883462644935 1.0130240408806528 
-113.14874108732919 -97.680438571781096 107.61278843994117 -113.14874108732919 -97.680438571781067 107.61278843994116 -128.63986390678082 -9.8009392802771824e-07 -5.4365606459707824e-07 -9.5830775378970231e-06 -128.48270135948539 4.1531375897033151e-07 2.4138970503018164e-08 2.2415318183144350e-05 0.0064673231773090343 5.2218382166543713e-13 4.6037886710839331e-11 1.2318191842818936e-10 0.0064523896125677207 -112.90434805199999 -97.655804887999992 108.38681131359999 128.09762094244454 0.0000000000000000 0.0000000000000000 0.0000000000000000 0.0000000000000000 3.0240453079348768 3.0482436445469356 1.0241986008039954 1.0112946746351266 275.76364186543020 275.76365361236270 1.0120271258104072 
-107.38767382484903 -103.87513054125014 99.711593917285143 -107.38767382484909 -103.87513054125019 99.711593917285114 -134.48227438541625 -1.0905392407958976e-05 -9.9191672184323270e-07 -1.2034736246968673e-05 0.0000000000000000 3.9596557982815583e-07 3.3247839356653763e-08 2.4284602566870817e-05 0.0066003889741900936 4.8870281446812949e-10 1.5672654006208110e-11 1.7425745990010652e-10 0.0000000000000000 -107.15466629968294 -103.84120130723400 100.55016500991876 102.24201981555134 0.0000000000000000 0.0000000000000000 0.0000000000000000 0.0000000000000000 3.0192501817117070 3.0384901468238281 1.0192396820996121 1.0095309133965755 274.54619677079899 274.54619275507162 1.0095716580367939 
-26.980003440292439 -115.40274705609221 102.52350784961828 -26.980003440292428 -115.40274705609225 102.52350784961831 -66.417277632807270 1.0229634638765417e-05 6.5004720105299129e-06 -1.5733831831650046e-05 0.0000000000000000 -1.1943931918630471e-06 1.4260736035311511e-06 2.3815205497448679e-05 0.0059954227305069356 -6.8122156715077795e-10 -3.6734213324324099e-10 4.9020567654603941e-10 0.0000000000000000 -26.889884864405381 -115.37486796036181 103.37575244326078 96.382960025775517 0.0000000000000000 0.0000000000000000 0.0000000000000000 0.0000000000000000 3.0341576102780858 3.0686086040913563 1.0344514396532960 1.0171333445254569 184.57476640206724 184.57515828819211 1.0170792052509972 
-109.80612123423096 -103.65537283686078 151.78428275657606 -109.80612123423094 -103.65537283686079 151.78428275657603 -121.91358438214576 3.0560897650398004e-07 9.6749856904376074e-07 1.6856161618992811e-07 -122.30086009367511 4.0408778215553226e-07 3.2924696649616614e-08 1.1965115496614942e-05 0.0061961337064678056 -2.5262644971913385e-12 -8.8153792435544179e-12 -2.5163115086180061e-12 0.0061975478346941778 -109.56833416800004 -103.62177336400003 152.19744990400002 70.302883591683823 0.0000000000000000 0.0000000000000000 0.0000000000000000 0.0000000000000000 3.0224652259048224 3.0450299201997071 1.0225648016481936 1.0112239081812162 260.29920263151240 260.28242758779913 1.0112198183512437 