# For a description of the Tecplot format see the Tecplot User's guide.
#
Variables=x,y,z,s_u,s_v,s_w,s_p,mono_f_vel_u,mono_f_vel_v,mono_f_vel_w,const,u_nu,v_nu,w_nu,p_nu,x_nu,y_nu,z_nu,const,u_ref,v_ref,w_ref,vol_ref,x_ref,y_ref,z_ref,const,I1,I2,I3,J,p1,p2,p3
Zone f=fepoint, n=3174, e=16683, et=brick, c=black
-25.4121 -154.953 106.639 -25.412094715133478 -154.95285983878318 106.63934363733894 -292.68649226587598 -2.9298384709684210e-05 -0.00011461135384816339 -0.00012116589370874585 -278.84928526172564 2.3667856577369584e-07 1.6144351822067191e-07 0.00018269515562607805 0.046345026626626672 1.7200737442342614e-09 5.5025037120438609e-09 2.5646160203456980e-09 0.046183922314701580 -24.903554063199991 -154.16086777200002 112.24023381839994 89.724962256112903 0.0000000000000000 0.0000000000000000 0.0000000000000000 0.0000000000000000 3.1860599007814425 3.3778937743255493 1.1917821998171751 1.0938066778229600 868.95605099132797 868.95559415812011 1.0915990933200290 
-38.175935096368548 -156.28100297266926 109.36752716896643 -38.175935096368555 -156.28100297266926 109.36752716896640 -241.17154267868190 9.3118878843358424e-05 -9.1410957565643064e-05 -6.0345449956273635e-05 0.0000000000000000 2.9667739039501850e-06 4.0997398933564874e-05 0.00019129974840358536 0.045318772089888486 -3.5635699717193135e-09 3.2868195799716259e-09 1.4232101573196281e-09 0.0000000000000000 -37.438273663334591 -155.10473791080037 114.93291110338620 89.036758072416930 0.0000000000000000 0.0000000000000000 0.0000000000000000 0.0000000000000000 3.2491290253780916 3.5151423471842231 1.2662898819860049 1.1185721282544179 903.03432397483016 903.03538164622989 1.1254009354653827 
-32.146486505607996 -148.60281611820596 114.73411411559094 -32.146486505607989 -148.60281611820585 114.73411411559086 -206.05347017684392 2.8376916737699947e-05 -6.4526643852717518e-05 -2.4032446548028148e-05 0.0000000000000000 2.8104411955998105e-07 1.4753130284095306e-07 0.00016724510123644618 0.044480384004543856 -1.3953452581624347e-09 3.2492573272082289e-09 -4.1185304707228652e-10 0.0000000000000000 -31.542619574254449 -147.87907313389167 119.86135157363466 98.260374494724786 0.0000000000000000 0.0000000000000000 0.0000000000000000 0.0000000000000000 3.2099622175011020 3.4306068834080325 1.2207353200305182 1.1073672650222333 788.94782752725700 788.94780763205574 1.1047478584241786 
-29.209955695229109 -143.63776108695305 106.51643919873469 -29.209955695229123 -143.63776108695308 106.51643919873462 -205.09767516104617 3.1071780210684709e-05 -8.6145451745975665e-05 -5.2562002306630136e-05 0.0000000000000000 2.6169852304636088e-07 1.3665341869195657e-07 0.00018292973674149948 0.044356406620428161 -7.6304130290657783e-10 4.9379150457950302e-09 2.5777196727341372e-09 0.0000000000000000 -28.647655777685479 -142.96738158566356 112.12452093910819 112.69127588814607 0.0000000000000000 0.0000000000000000 0.0000000000000000 0.0000000000000000 3.2198887062485828 3.4524843318130500 1.2327924098504799 1.1079010693269737 798.97306123116903 798.97256505053122 1.1103155218131766 
-24.761187158734099 -201.72687007418750 65.732029347978894 -24.761187158734096 -201.72687007418747 65.732029347978894 -876.07236413782039 5.7277459360026478e-06 5.5147855628344831e-07 3.6261281701172973e-06 -880.69304855516373 2.3239044696921058e-07 2.6392007457243238e-07 0.00026077275307656578 0.064356535770294251 -2.4313753034599708e-11 -1.5410138383614939e-10 -1.9732498759989287e-10 0.064379508941611527 -24.261860196399997 -200.43215969199997 73.726546483199982 142.71380061529433 0.0000000000000000 0.0000000000000000 0.0000000000000000 0.0000000000000000 3.1791539387850416 3.3654752802975589 1.1864027980288230 1.0891063067536768 1893.0365237193005 1893.0050364721169 1.0892216099119683 
-24.655224812967592 -188.79479658256017 67.413769467296689 -24.655224812967592 -188.79479658256017 67.413769467296689 -861.36551648526654 2.0163905333484717e-05 -2.6914939322897039e-05 -8.4842815933820998e-06 -866.81820303059590 2.3169237775566565e-07 2.3558736683693127e-07 0.00025756290587786163 0.063910573218031091 -8.1082396347083492e-10 1.1396384478879648e-09 7.2365322718616016e-10 0.064178706011861805 -24.157397762799999 -187.63907770800003 75.309882232799993 165.73632395326644 0.0000000000000000 0.0000000000000000 0.0000000000000000 0.0000000000000000 3.1791832097329471 3.3654848588615129 1.1863815046091981 1.0891063067536773 1868.4802971536769 1868.6929783671617 1.0892095625746940 
-35.537408186130939 -196.65149008288509 74.091290991826270 -35.537408186130953 -196.65149008288515 74.091290991826270 -852.70980450764876 9.3966381272856024e-06 -2.1024996593486061e-05 -4.1394286508771078e-05 0.0000000000000000 3.0338319875755637e-07 2.5280048887577067e-07 0.00024481787858832149 0.063993250796733347 -3.6239336157648109e-10 1.6150868364749649e-09 6.1648689726473494e-11 0.0000000000000000 -34.885542273181727 -195.41132893576267 81.596679120775832 139.46796289390394 0.0000000000000000 0.0000000000000000 0.0000000000000000 0.0000000000000000 3.1775402452439194 3.3621679739949579 1.1847092824604011 1.0874777097394099 1850.4006384649126 1850.2608541499503 1.0884419290119700 
-19.243828928086263 -195.76028261762181 73.896148409220160 -19.243828928086263 -195.76028261762173 73.896148409220146 -869.07596913201951 1.0265579411534964e-05 -1.3486149556950211e-05 -1.9423007475012258e-05 0.0000000000000000 1.9604260012573424e-07 2.5084795829410927e-07 0.00024519033675929336 0.064004145065909374 -4.2309754199257270e-10 1.0063901137557052e-09 1.4802346516111790e-10 0.0000000000000000 -18.822600960987238 -194.52970000168264 81.412954998504986 111.95285379220412 0.0000000000000000 0.0000000000000000 0.0000000000000000 0.0000000000000000 3.1794879521993535 3.3661314700355969 1.1867246582769015 1.0891063067536750 1889.4583527827706 1889.4082093098280 1.0893706715617097 
-23.140366082070205 -103.44631874670094 33.349342591373833 -23.140366082070209 -103.44631874670095 33.349342591373833 -835.98907737511581 -2.6745635876292812e-05 3.1582384843969480e-05 -4.3140573065737052e-05 -845.03238264609831 2.2171262695214189e-07 4.8598539970079457e-08 0.00032257985102290826 0.066550171527228641 4.0487183118239741e-10 -2.4553990107221803e-09 3.3954850655170467e-09 0.067427690072479743 -22.663982073999996 -103.20790935200000 43.238681550399988 69.202643319072678 0.0000000000000000 0.0000000000000000 0.0000000000000000 0.0000000000000000 3.1788003941731944 3.3647322974275466 1.1860127798032734 1.0891063067536784 1825.0401919933158 1820.4296642911033 1.0890434768901611 
-30.735555690170553 -111.09370905974549 37.332484285613710 -30.735555690170546 -111.09370905974549 37.332484285613710 -812.99308338513526 2.0421838892014884e-06 4.9319877417029007e-05 -5.8549776322933860e-05 -806.05442113120773 2.7174903652338328e-07 6.5353104372611881e-08 0.00031497744203612399 0.065199968185137430 1.6910111004009380e-09 -3.3207942299547537e-09 3.7339398666068696e-09 0.065516132320341286 -30.151660686400003 -110.77310694400001 46.988755992800002 74.715282964229786 0.0000000000000000 0.0000000000000000 0.0000000000000000 0.0000000000000000 3.1796660113542106 3.3664904264484643 1.1869053767034747 1.0891063067536781 1781.1306918872508 1783.3414305863005 1.0894555830046377 
-19.155122630767472 -103.80935961001221 40.539819771605572 -19.155122630767469 -103.80935961001221 40.539819771605565 -796.01286906252619 -3.2737782480411861e-05 2.5646518300564510e-05 -6.2102213153205342e-05 -797.71022842948423 1.9545821014488321e-07 4.9393917511686425e-08 0.00030885577276684728 0.064225542122111748 1.0479114040707595e-09 -2.8206507939128242e-09 3.5041755447891894e-09 0.064412802660224408 -18.735150314000002 -103.56704831999998 50.008419303199993 79.719497061372692 0.0000000000000000 0.0000000000000000 0.0000000000000000 0.0000000000000000 3.1788739610127581 3.3648779915031048 1.1860848259430632 1.0891063067536784 1753.5076036414573 1752.6676343500405 1.0890752481648318 
-26.008867285207366 -98.674714266402759 41.574161291065806 -26.008867285207355 -98.674714266402745 41.574161291065813 -807.65043211473085 1.5643435329506697e-06 1.1422985946820867e-05 -9.6187472332779272e-05 0.0000000000000000 2.4061005046704942e-07 3.8144483904822841e-08 0.00030688158056157983 0.065251666604287509 6.3275234373890868e-10 -1.7662379792252556e-09 3.6852733134617158e-09 0.0000000000000000 -25.491879232152165 -98.487589184379729 50.982237960580505 72.292163684038698 0.0000000000000000 0.0000000000000000 0.0000000000000000 0.0000000000000000 3.1787268612538027 3.3646132745141575 1.1859681004668339 1.0891063067536775 1771.5313495852336 1770.5383480800929 1.0890197546568823 
-25.918206526412195 -104.38313542193751 102.89800753949991 -25.918206526412185 -104.38313542193750 102.89800753949989 -195.79129783203203 2.7721203054609752e-05 9.2320651820163867e-05 -9.6444723372752489e-06 0.0000000000000000 3.6768413823758464e-06 -1.0914017638220693e-05 0.00019726362041980479 0.044374896918619323 -2.4557825600046928e-09 -6.4758129124544295e-09 3.8212526243819644e-09 0.0000000000000000 -25.283559732051039 -104.23282252886388 108.75695162467670 96.378087069502698 0.0000000000000000 0.0000000000000000 0.0000000000000000 0.0000000000000000 3.2119136300557569 3.4335769709674411 1.2216647896571411 1.1104614524879168 753.83186309111863 753.83186452186885 1.1051687725718891 
-26.577930631976258 -118.31115859243313 104.88535262245725 -26.577930631976269 -118.31115859243310 104.88535262245718 -138.02226641320462 3.8120366756438995e-05 3.5410949798506696e-06 -3.2057594449280132e-05 0.0000000000000000 6.9599700221454925e-06 -6.5974808374645567e-06 0.00019541831640338620 0.042040272574493165 -3.7447081317409411e-09 1.4316049595308526e-10 3.4407979281628331e-09 0.0000000000000000 -25.913646985361510 -118.01095136745833 110.66456878241424 88.846747377876298 0.0000000000000000 0.0000000000000000 0.0000000000000000 0.0000000000000000 3.2752414101101937 3.5691998471045041 1.2942521565174159 1.1288730087393204 772.24447217383579 772.24446644296154 1.1377744426224004 
-37.227157872386663 -112.74383406130779 106.38702249605780 -37.227157872386663 -112.74383406130788 106.38702249605784 -142.72896143748855 -3.1753955110845359e-05 4.6269778568935559e-05 2.8273281489969489e-05 0.0000000000000000 1.9131676217696984e-05 -2.3106096414196754e-05 0.00019337791419157493 0.042061248526147149 2.2334654705332176e-09 -4.6965035547476978e-09 -2.4220098892068882e-09 0.0000000000000000 -36.236867317722961 -112.72601430119678 112.03758904139967 95.996160021407249 0.0000000000000000 0.0000000000000000 0.0000000000000000 0.0000000000000000 3.2814912382136998 3.5829363934188896 1.3018116336506649 1.1357027570467328 794.04696726020211 794.04697013558780 1.1409863667574922 
-34.219876723217524 -105.03136237291513 99.435967902737914 -34.219876723217538 -105.03136237291515 99.435967902737943 -191.24367190560088 8.2995973628225843e-07 0.00010445475751689865 -1.3258688264219898e-05 0.0000000000000000 1.1084958458769731e-05 -2.9500502084731364e-05 0.00022352292667519519 0.044768686253053337 -1.7126840464431641e-09 -7.0545369998307801e-09 3.5351126290383224e-09 0.0000000000000000 -33.380789828628046 -105.09637623893835 105.63342596379557 85.433794965156210 0.0000000000000000 0.0000000000000000 0.0000000000000000 0.0000000000000000 3.2563725469128726 3.5272927364070670 1.2710481726979335 1.1218963482254669 801.82518418821212 801.82518747254551 1.1273876505064768 
-113.98167810628026 -161.52611984009650 119.83553518210019 -113.98167810628026 -161.52611984009650 119.83553518210017 -504.41936314216076 5.1657767652363705e-06 -1.6185214980168841e-05 -3.8466635289902567e-05 -502.52372545779423 8.2016681632324229e-07 1.7584478595455979e-07 0.00015750829237148878 0.049162254812845328 -2.3050818978407183e-10 7.5216481335650065e-10 7.1450205627628862e-10 0.049168276164692555 -112.21942232800005 -160.66347960400000 124.66427103520003 147.55923210393107 0.0000000000000000 0.0000000000000000 0.0000000000000000 0.0000000000000000 3.1918131727814889 3.3931376585352244 1.2014584396213819 1.0891063067536761 1271.2007499911967 1271.2053417568493 1.0962422759295478 
-101.11271118120311 -158.92942035503657 111.25396847823713 -101.11271118120308 -158.92942035503660 111.25396847823717 -522.43054377129886 -3.5130069135390505e-05 -2.7488916447936082e-05 -7.2300221208504404e-05 0.0000000000000000 7.3538725806066029e-07 1.7015571518452788e-07 0.00017388746861790594 0.049406789837994750 1.8156489302798979e-09 1.0103443682120091e-09 2.8173830852137528e-10 0.0000000000000000 -99.532617471171264 -158.09468895943013 116.58484116745363 117.70414803503969 0.0000000000000000 0.0000000000000000 0.0000000000000000 0.0000000000000000 3.1489128529986781 3.2962179457544734 1.1471274741509883 1.0742528637738640 1213.5246464766931 1213.5240797061417 1.0709263176714148 
-105.99171932111928 -149.58932561652725 115.82856315175573 -105.99171932111933 -149.58932561652725 115.82856315175572 -487.32196801204043 -2.9520697965860128e-05 -3.1369581216997468e-05 -3.2681648976699638e-05 0.0000000000000000 7.6752971076010645e-07 1.4969264572339824e-07 0.00016515618503909479 0.048736995797611808 1.3319800435360505e-09 1.4253711088695721e-09 -1.4082000985770938e-10 0.0000000000000000 -104.34256255272837 -148.85497981259945 120.89176065121424 119.29379793442074 0.0000000000000000 0.0000000000000000 0.0000000000000000 0.0000000000000000 3.1496474750090169 3.3007820732952662 1.1511082650312909 1.0755857654723553 1156.6357501608070 1156.7092370055689 1.0727536152147581 
-102.12483009282145 -163.16329096294169 119.73308486191343 -102.12483009282143 -163.16329096294160 119.73308486191351 -498.22492466240635 -1.8801134820654642e-05 -4.1804913202763925e-05 -3.5149947542365471e-05 0.0000000000000000 7.4205499664414809e-07 1.7943165608880207e-07 0.00015770383380697692 0.048979411820252790 9.9605013530810427e-10 1.8484396554061247e-09 2.0597624080057721e-10 0.0000000000000000 -100.53040969477119 -162.28305471776312 124.56781543385799 141.51484144144280 0.0000000000000000 0.0000000000000000 0.0000000000000000 0.0000000000000000 3.1529439124970700 3.3092895204260624 1.1563383563654634 1.0766194021050135 1182.2683828055599 1182.2463270371850 1.0752360615047543 
-79.677198534910460 -149.53115862396893 82.430814869898768 -79.677198534910445 -149.53115862396891 82.430814869898768 -544.07222837036477 -8.6040874412956426e-05 -6.2249918732789857e-05 -3.0018766695605681e-05 -545.15537859661629 5.9417207828871277e-07 1.4956520499875836e-07 0.00022890067649328216 0.053807864103402832 3.8632173273918041e-09 4.7307969009793356e-09 2.2735953878624288e-09 0.054121553400033003 -78.400527573600002 -148.79743798799998 89.448228916799977 108.06316173413846 0.0000000000000000 0.0000000000000000 0.0000000000000000 0.0000000000000000 3.1912409027994921 3.3906952352075090 1.1995705171253337 1.0891063067536786 1342.0402692406171 1342.0359544516211 1.0953622328171431 
-81.451144712082765 -163.41761397738009 80.651480742369358 -81.451144712082765 -163.41761397738009 80.651480742369358 -679.43248707051987 -4.9224467963939383e-05 -0.00010280659993763610 -5.5776034249802405e-05 -684.30552161890421 6.0585867064921750e-07 1.7998885082359808e-07 0.00023229679614900078 0.058239005758554695 -8.2885300358640348e-10 6.1328030946538700e-09 3.0958392395508449e-09 0.059422056829820845 -80.149363288800018 -162.53464431600008 87.773009718400019 109.57810873427631 0.0000000000000000 0.0000000000000000 0.0000000000000000 0.0000000000000000 3.1927907451968598 3.3933469825080711 1.2006461327400635 1.0891063067536775 1580.2062822918374 1580.2454488657195 1.0958886449260634 
-85.656791569145582 -161.04186897502970 88.299158018474301 -85.656791569145582 -161.04186897502959 88.299158018474330 -617.18630707348711 -3.4456779165703728e-05 -7.0199866903433556e-05 -0.00010308509647815376 0.0000000000000000 6.3356508114842391e-07 1.7478385927471862e-07 0.00021770008457977497 0.056145229562778426 2.4808055563794945e-09 2.3308166378935295e-09 2.2502095874893082e-09 0.0000000000000000 -84.295478612813938 -160.18443337667750 94.973195224810283 106.11323630727971 0.0000000000000000 0.0000000000000000 0.0000000000000000 0.0000000000000000 3.1458210550562504 3.2969716342610682 1.1511917565470069 1.0756705193175002 1370.6607526086491 1370.6597573903052 1.0727271934163438 
-87.866603848144038 -152.15203847851404 85.815096751235046 -87.866603848144010 -152.15203847851402 85.815096751235103 -591.62392837115885 -3.9982218796766869e-05 -9.1293655313048463e-05 -9.8585578607287061e-05 0.0000000000000000 6.4812311370565634e-07 1.5530725472334692e-07 0.00022244127912607325 0.054885802543700409 1.4423086105008601e-09 4.2329370577650972e-09 1.0918544718498453e-09 0.0000000000000000 -86.474010682800568 -151.39014911596544 92.634484883397832 94.367740677547317 0.0000000000000000 0.0000000000000000 0.0000000000000000 0.0000000000000000 3.1626573522445636 3.3318612692405751 1.1692864135387646 1.0787652479682375 1354.2659492884059 1354.2644560215886 1.0813364829361414 
-26.543208255955133 -132.98680007604341 134.68476813688414 -26.543208255955125 -132.98680007604341 134.68476813688409 -284.32556370503863 2.8236980144366028e-05 -2.4130390615339693e-05 0.00011048354089407583 -302.09683757777390 2.4413023738678591e-07 1.1331838967176822e-07 0.00012916635761328621 0.047391029299930741 -2.6147551322006473e-10 2.1996100380697388e-10 -3.7555577747057304e-09 0.047202002391161832 -26.018656529999991 -132.43089511199997 138.64462455200004 49.421240865332216 0.0000000000000000 0.0000000000000000 0.0000000000000000 0.0000000000000000 3.1770303829559792 3.3607472775821345 1.1838002928234768 1.0944364208305530 859.12053263442351 859.12053506756081 1.0880896670702713 
-33.112994910523049 -134.52929674985106 133.57835364663163 -33.112994910523064 -134.52929674985111 133.57835364663154 -268.83445645143189 -2.2011329413854084e-06 2.0109167489603496e-05 5.9491165961859134e-05 -214.07275503292263 2.8741138688448409e-07 1.1669780597411972e-07 0.00013127811162227943 0.047458619996060686 8.2211429842937467e-10 -2.2949787501663298e-10 -1.6300901391684040e-09 0.051199524342079215 -32.495446914399992 -133.95681332000001 137.60295016000006 48.530522504776933 0.0000000000000000 0.0000000000000000 0.0000000000000000 0.0000000000000000 3.2193742539441685 3.4508444638590943 1.2316396454481160 1.1092813611962087 914.46334816507090 914.46334815922421 1.1096873738344331 
-28.977209214200940 -137.03822604070660 136.45367280250508 -28.977209214200926 -137.03822604070660 136.45367280250505 -285.26177275945992 3.1838897113535344e-05 2.5235428953469849e-05 3.5109023450560394e-05 -300.78531034681225 2.6016521112448565e-07 1.2219460765461321e-07 0.00012579014410718514 0.047708274165062160 1.3347830034009033e-10 -1.9957084123238883e-09 -8.4826905355649501e-10 0.047498999049143023 -28.418203856399998 -136.43877710800004 140.31002455199999 44.353383947079159 0.0000000000000000 0.0000000000000000 0.0000000000000000 0.0000000000000000 3.1854957910815846 3.3780725475775624 1.1926428243296574 1.0985384281696444 878.89111794066821 878.89110043429946 1.0920564916164783 
-27.303681829521757 -130.02581800708506 140.21188869034455 -27.303681829521757 -130.02581800708506 140.21188869034452 -308.85635983679805 1.5633949016430264e-05 1.9011045007368517e-05 2.0069384546622180e-05 0.0000000000000000 2.4914016885646539e-07 1.0683119888721393e-07 0.00011861703895199582 0.048170891346251805 2.2634877474570111e-11 -5.0915309181025588e-10 3.3607831726856535e-10 0.0000000000000000 -26.768365491316434 -129.50173712462359 143.84833436668455 49.139845408488213 0.0000000000000000 0.0000000000000000 0.0000000000000000 0.0000000000000000 3.1898314635066423 3.3888779056408724 1.1991647299826544 1.0990178767207490 937.16903242811861 937.16902995561622 1.0950327297506524 
-40.795050517669573 -65.304539681713749 150.94496436039134 -40.795050517669566 -65.304539681713763 150.94496436039134 -454.14520746099714 -1.2908592646943572e-05 -1.1698229775073560e-06 2.4596900598520191e-05 -458.30200135139944 3.3802006113581307e-07 -3.4965787265583970e-08 9.8131392908484813e-05 0.048928484944171416 2.6026797031687734e-11 -2.4725111096146318e-10 -1.7497151709064644e-10 0.049067744532028522 -40.068761925200000 -65.476070995999990 153.95338104800004 156.95717166164070 0.0000000000000000 0.0000000000000000 0.0000000000000000 0.0000000000000000 3.1750035291880745 3.3571473548478608 1.1822364047048286 1.0866375750470829 1151.0163848630732 1151.0077420314794 1.0873142083686671 
-53.330487400849968 -59.421009876773475 145.96394109056274 -53.330487400849968 -59.421009876773489 145.96394109056271 -461.38214910068422 -1.5211071766659810e-05 -3.1018620051847214e-06 1.7825566382856586e-05 -463.55477742461807 4.2060236357666092e-07 -4.7855929774520689e-08 0.00010763840493410724 0.048926487387056759 3.6078962669213555e-10 -2.9305167239177380e-10 9.0536828308275011e-11 0.049080509478777068 -52.426757905599978 -59.655776269200025 149.26381449600007 118.05125250056595 0.0000000000000000 0.0000000000000000 0.0000000000000000 0.0000000000000000 3.1825465011926299 3.3730108285448899 1.1905644593128084 1.0869782512751598 1178.4793849212597 1178.4704728102911 1.0911482470588039 
-35.828909416982910 -65.864254564205723 141.43469607233371 -35.828909416982917 -65.864254564205709 141.43469607233371 -439.79579169322767 -3.2851280804146505e-06 1.8275536934880815e-06 4.7400292771539313e-07 -439.55348781424522 3.0530358127722756e-07 -3.3739502747209826e-08 0.00011628313207978636 0.048897086370522341 -4.8299541033794591e-11 2.6336233225752197e-11 2.4589735518591272e-10 0.048972905645162983 -35.172917262399999 -66.029770167599992 144.99959110400002 155.12084301790807 0.0000000000000000 0.0000000000000000 0.0000000000000000 0.0000000000000000 3.1806347777417945 3.3682902209145644 1.1877354120204127 1.0886385373225380 1138.0809158622692 1138.0838399370512 1.0898350634885312 
-51.287640956280953 -66.430700641551965 138.46479658387105 -51.287640956280946 -66.430700641551979 138.46479658387111 -448.87541614574775 -1.4666764741472767e-05 9.3553518500524990e-06 1.0412179903220665e-05 0.0000000000000000 4.0714428403698649e-07 -3.2498494784150012e-08 0.00012195161997219371 0.048838255942836334 3.2926600543915280e-10 -6.5641689122389664e-10 2.5211236234286634e-10 0.0000000000000000 -50.412828244765279 -66.590128188430739 142.20347059834828 136.07757377940416 0.0000000000000000 0.0000000000000000 0.0000000000000000 0.0000000000000000 3.1625330757418642 3.3292486904015717 1.1667116389619030 1.0821857190354489 1116.1028426703490 1116.0964391775885 1.0801178395018622 
-96.068409741360512 -159.55824099424905 69.874754545532440 -96.068409741360497 -159.55824099424902 69.874754545532454 -805.47483711173686 -2.0734167118118021e-05 -3.0482262909748578e-05 -4.3542924714180490e-05 -806.06794342829266 7.0215586597810464e-07 1.7153339315623126e-07 0.00025286575561267455 0.060018516315575990 -5.0229155259196156e-10 1.4524220630466176e-09 1.7464199618422970e-09 0.060800068166339573 -94.559718839999974 -158.71675115199997 77.626866652000004 109.98746742214213 0.0000000000000000 0.0000000000000000 0.0000000000000000 0.0000000000000000 3.1781632787179315 3.3634292717856340 1.1853472671044687 1.0891063067536775 1769.5615762343880 1769.5622040831911 1.0887314532695416 
-91.120796199723301 -159.30517513370248 74.985275788121825 -91.120796199723301 -159.30517513370248 74.985275788121811 -746.02502684185049 -7.4808859480637708e-05 -6.9877482995965660e-05 -8.8624839532502813e-05 -726.98310810739179 6.6956144459395794e-07 1.7097895887996375e-07 0.00024311157773126982 0.058880089062010484 2.1756247223804782e-10 3.0561712072971282e-09 4.0900827314221881e-09 0.059558965329938852 -89.682139475999989 -158.46640519600001 82.438353807199988 112.88451412247700 0.0000000000000000 0.0000000000000000 0.0000000000000000 0.0000000000000000 3.1802784664893955 3.3674178301707496 1.1872133045443090 1.0891063067536779 1661.9958235132317 1661.9931517664152 1.0895721230767563 
-104.33558048186124 -155.74453953680154 79.415112932067103 -104.33558048186117 -155.74453953680143 79.415112932067117 -736.07660614365648 -1.7428931396705963e-05 -1.6693011556701164e-05 -9.9639341109675133e-05 0.0000000000000000 7.5661922491199174e-07 1.6317801343479490e-07 0.00023465658508570189 0.057825216314972484 9.1828766988184614e-10 1.0353022064362715e-09 1.5087760306108910e-09 0.0000000000000000 -102.70986659571734 -154.94403864466588 86.608986019839278 111.02505284862640 0.0000000000000000 0.0000000000000000 0.0000000000000000 0.0000000000000000 3.1819546767525817 3.3713748606672458 1.1895034650547920 1.0868258546584137 1662.3657304638784 1662.3656080219685 1.0906846533422228 
-101.99971403922365 -168.10728666537702 76.293548650147528 -101.99971403922368 -168.10728666537702 76.293548650147542 -782.73268795606668 -9.5769880388430832e-06 -2.1313968172741608e-05 -9.5730581878701926e-05 0.0000000000000000 7.4123075441412389e-07 1.9026339470595843e-07 0.00024061454746870936 0.059679475698009764 3.3488598320737568e-12 1.6257896916440253e-09 5.2692034670635766e-10 0.0000000000000000 -100.40706467681501 -167.17391327890167 83.670075146830683 105.53983917324770 0.0000000000000000 0.0000000000000000 0.0000000000000000 0.0000000000000000 3.1785791275634669 3.3643052830594184 1.1858074179153204 1.0872588544427415 1725.9180442113698 1725.9187633775150 1.0889528810021574 
-116.42084477550412 -100.00729888026332 89.997608828694709 -116.42084477550408 -100.00729888026332 89.997608828694723 -605.21288844249364 -1.6602894738470710e-05 -2.3676640389919873e-05 -7.1279791816470538e-05 -613.53794866513647 8.3623583444096684e-07 4.1064025624315548e-08 0.00021445834257960428 0.054421997877610893 5.2644866363122094e-10 1.6325253440339453e-09 2.3856192499317911e-09 0.054559688550179168 -114.62406224400000 -99.805851428000011 96.572263865600007 85.211636250682801 0.0000000000000000 0.0000000000000000 0.0000000000000000 0.0000000000000000 3.1837023685755237 3.3738066608232908 1.1900963131872708 1.0808015711761088 1428.7364822032810 1428.6866046865703 1.0908742065225465 
-112.83356620604884 -91.204478356981284 93.873399236587389 -112.83356620604884 -91.204478356981312 93.873399236587389 -568.71853535831337 -7.2047174970658383e-06 -1.1078159919164703e-06 -7.7220967289850807e-05 -563.76199064030061 8.1260316950326771e-07 2.1778052472498640e-08 0.00020706082923638292 0.053234928498290889 -7.2338193356758064e-11 -3.9770672867093140e-10 3.0986066055737697e-09 0.052672633029784761 -111.08756211600000 -91.097641973600034 100.22126851279998 99.535403830130534 0.0000000000000000 0.0000000000000000 0.0000000000000000 0.0000000000000000 3.1953928876169866 3.3996606617561933 1.2044009765894059 1.0859295630012740 1387.8540189076089 1387.8801328066215 1.0975425164377148 
-114.67643825966482 -97.833892980068711 102.54643079516931 -114.67643825966481 -97.833892980068697 102.54643079516929 -518.53304313774083 -7.2772888860704938e-06 -5.2429492320792434e-06 -6.9188888832470409e-05 -517.82228555640916 8.2474383819586272e-07 3.6302349015748803e-08 0.00019050707892809268 0.051261694388171720 -7.6440644459579022e-12 1.5345693574199835e-10 1.7795159327622118e-09 0.051146705760810381 -112.90434805199999 -97.655804887999992 108.38681131359999 128.09762094244454 0.0000000000000000 0.0000000000000000 0.0000000000000000 0.0000000000000000 3.1819523279742818 3.3723025224314260 1.1904561451758762 1.0859978503574061 1280.8009854917987 1280.8332789266681 1.0910841637856188 
-108.84420034513106 -104.08649115527191 94.222736661986573 -108.84420034513099 -104.08649115527184 94.222736661986531 -560.39585042680176 -7.8833161184309344e-05 -7.6276733292903900e-06 -8.1939941312760882e-05 0.0000000000000000 7.8632159480895858e-07 5.0001077611661053e-08 0.00020639406761446824 0.052786462110036195 4.9340604187444222e-09 1.7500669426090904e-10 1.2696868352108122e-09 0.0000000000000000 -107.15466629968294 -103.84120130723400 100.55016500991876 102.24201981555134 0.0000000000000000 0.0000000000000000 0.0000000000000000 0.0000000000000000 3.1530337280846514 3.3065776616405702 1.1534555710012449 1.0736220379049057 1284.3305178254598 1284.3173339313798 1.0738881398109756 
-27.501957590070454 -115.63647544916682 96.999426383955651 -27.501957590070450 -115.63647544916691 96.999426383955651 -170.62336577909841 5.9575132688732755e-05 2.4435477650128135e-05 -8.1324829738827108e-05 0.0000000000000000 1.6192208058239961e-06 -8.4261769438286945e-06 0.00022618410401401343 0.044083477839517639 -3.5098145017756947e-09 -1.3789759742272081e-09 4.2490608966290629e-09 0.0000000000000000 -26.889884864405381 -115.37486796036181 103.37575244326078 96.382960025775517 0.0000000000000000 0.0000000000000000 0.0000000000000000 0.0000000000000000 3.2451956656216230 3.5052531232076061 1.2602501196714402 1.1220695548158015 768.83850606261296 768.83848160965135 1.1225837570855015 
-111.29252459351538 -103.86467921882311 149.07990203714726 -111.29252459351534 -103.86467921882310 149.07990203714729 -467.62841403070490 1.5234467880277232e-06 5.1512407589671081e-06 5.0072812797092273e-07 -469.75575420308610 8.0245092601294310e-07 4.9515117006571074e-08 0.00010169113735614133 0.047995034345617443 -1.0078761389744234e-10 -3.8245426800952557e-10 6.6970351435390798e-11 0.048022736765024970 -109.56833416800004 -103.62177336400003 152.19744990400002 70.302883591683823 0.0000000000000000 0.0000000000000000 0.0000000000000000 0.0000000000000000 3.1724053382828910 3.3506388977674537 1.1782838739171275 1.0856795335401874 1169.2097764470841 1169.2133210140489 1.0855013171043686 