# For a description of the Tecplot format see the Tecplot User's guide.
#
Variables=x,y,z,s_u,s_v,s_w,s_p,mono_f_vel_u,mono_f_vel_v,mono_f_vel_w,const,u_nu,v_nu,w_nu,p_nu,x_nu,y_nu,z_nu,const,u_ref,v_ref,w_ref,vol_ref,x_ref,y_ref,z_ref,const,I1,I2,I3,J,p1,p2,p3
Zone f=fepoint, n=3174, e=16683, et=brick, c=black
-25.1788 -154.590 109.273 -25.178810296628924 -154.59022527914169 109.27278752301044 -206.17172189098079 -1.6490999100934095e-05 -6.7614792114708522e-05 -7.0027510893711504e-05 -199.62686613027643 1.1434923841147082e-10 5.9288018938730147e-11 3.5889573180014622e-07 0.00079769763172189939 2.6884833823815851e-12 9.7303344214762315e-12 -4.1175067172931887e-11 0.00078785492610349342 -24.903554063199991 -154.16086777200002 112.24023381839994 89.724962256112903 0.0000000000000000 0.0000000000000000 0.0000000000000000 0.0000000000000000 3.0977281931991238 3.1970359469084575 1.0992979211977278 1.0499293931631013 552.65738032675711 552.65482346962074 1.0484507289242058 
-37.845057756229977 -155.75171044965043 111.98519630984805 -37.845057756229956 -155.75171044965049 111.98519630984809 -175.32216796623720 5.4470685076068403e-05 -5.8029131589519517e-05 -3.6096320860779550e-05 0.0000000000000000 -5.5747742342749643e-09 -2.7063907119224134e-07 4.0897810196002624e-07 0.00082377630644623321 3.3923156784829977e-11 -3.1038561112992032e-11 1.7091023840287499e-12 0.0000000000000000 -37.438273663334591 -155.10473791080037 114.93291110338620 89.036758072416930 0.0000000000000000 0.0000000000000000 0.0000000000000000 0.0000000000000000 3.1347578305225317 3.2745116478735654 1.1397986038160743 1.0639670387929860 573.92236338880332 573.92115074156527 1.0676476036099738 
-31.869472769539243 -148.27143120992471 117.14485449752661 -31.869472769539243 -148.27143120992474 117.14485449752657 -154.24581741853717 1.7598576347350765e-05 -4.1867039072910371e-05 -1.1180381940630646e-05 0.0000000000000000 1.3578631274935304e-10 5.4182658359991358e-11 3.2854486153865997e-07 0.00080407546394879259 1.4136187684452635e-11 1.0158064454649131e-12 9.6859870533399044e-12 0.0000000000000000 -31.542619574254449 -147.87907313389167 119.86135157363466 98.260374494724786 0.0000000000000000 0.0000000000000000 0.0000000000000000 0.0000000000000000 3.1125345213113040 3.2281881028820139 1.1156673995757911 1.0578115099285668 505.70718200411699 505.70793749850651 1.0562109735649452 
-28.952010123344955 -143.33081006378160 109.15326443402877 -28.952010123344959 -143.33081006378154 109.15326443402876 -152.61556348724361 2.0627080922056051e-05 -5.2396191206471810e-05 -3.5044593598723586e-05 0.0000000000000000 1.2643770752607253e-10 5.0185411382130958e-11 3.5935655784413706e-07 0.00080998795110134522 6.4446254947090734e-11 -1.6733554262521972e-11 5.7783546087820450e-12 0.0000000000000000 -28.647655777685479 -142.96738158566356 112.12452093910819 112.69127588814607 0.0000000000000000 0.0000000000000000 0.0000000000000000 0.0000000000000000 3.1183485658810883 3.2404703217638806 1.1221542553946608 1.0580903529098751 510.05257262644051 510.05868466238820 1.0593177131639420 
-24.532129364418402 -201.13405260921624 69.490916165619637 -24.532129364418406 -201.13405260921624 69.490916165619637 -531.54492500753918 2.5396936052298623e-06 1.5111404191330682e-07 1.7765453435181431e-06 -534.01202240099690 1.1227753449194464e-10 9.6936680904491368e-11 5.1227537500864173e-07 0.00068654639285803658 -6.4976261798630585e-12 -1.1936610957201154e-12 -1.6959956267494405e-12 0.00068709073753114782 -24.261860196399997 -200.43215969199997 73.726546483199982 142.71380061529433 0.0000000000000000 0.0000000000000000 0.0000000000000000 0.0000000000000000 3.0944750109615886 3.1909776367315175 1.0965150374574770 1.0470869403573664 1123.8749325218748 1123.8749332903208 1.0471462722177451 
-24.426855077976633 -188.26562006334615 71.126388213723871 -24.426855077976629 -188.26562006334618 71.126388213723871 -523.45888672689671 1.0411934366051769e-05 -1.4439909931983052e-05 -4.4873157780710750e-06 -526.22499356859760 1.1194027649263913e-10 8.6529006182445301e-11 5.0596979317418800e-07 0.00068839989763508466 -6.2586150165941670e-12 -1.4002854556629179e-12 -9.4671734779725611e-13 0.00069033036640913606 -24.157397762799999 -187.63907770800003 75.309882232799993 165.73632395326644 0.0000000000000000 0.0000000000000000 0.0000000000000000 0.0000000000000000 3.0944830745681742 3.1909801530515556 1.0965092492759001 1.0470869403573650 1110.3753500745383 1110.3753505426300 1.0471428514930159 
-35.238375729498195 -196.08364943102373 77.620197618956254 -35.238375729498188 -196.08364943102359 77.620197618956311 -519.16943616383298 4.3154567841850601e-06 -1.1296496210302167e-05 -2.2680172153127409e-05 0.0000000000000000 1.4657534908035788e-10 9.2839513854414677e-11 4.8093280557992557e-07 0.00068126362894280158 -8.1351831618138132e-12 -3.8596100094043573e-12 1.0745663823157009e-12 0.0000000000000000 -34.885542273181727 -195.41132893576267 81.596679120775832 139.46796289390394 0.0000000000000000 0.0000000000000000 0.0000000000000000 0.0000000000000000 3.0936460158521855 3.1892984013646370 1.0956648157269013 1.0462330075643975 1101.2989787714316 1101.2989770241211 1.0467395672589221 
-19.050597726236543 -195.19682775014314 77.430423803382055 -19.050597726236550 -195.19682775014309 77.430423803382084 -527.48453026112259 5.2491370397578824e-06 -7.1178633288887163e-06 -1.0588769214791758e-05 0.0000000000000000 9.4716193221877631e-11 9.2134300189172804e-11 4.8166447186304140e-07 0.00069141904143571269 -5.2143208168783833e-12 -6.7081496327988347e-13 -2.1129372161535409e-12 0.0000000000000000 -18.822600960987238 -194.52970000168264 81.412954998504986 111.95285379220412 0.0000000000000000 0.0000000000000000 0.0000000000000000 0.0000000000000000 3.0946465194501953 3.1913175414392190 1.0966833855384366 1.0470869403573662 1121.5728403687783 1121.5728404315048 1.0472270347350081 
-22.921832979780365 -103.33715668626148 37.999142600494260 -22.921832979780365 -103.33715668626147 37.999142600494260 -518.86986080951988 -1.5325042295120310e-05 1.7657320495527036e-05 -2.4028383411773973e-05 -523.69087822575045 1.0711882769687264e-10 1.7852275213670055e-11 6.3369240965727158e-07 0.00059263591833088203 -1.7227821180364617e-11 2.2257692650649696e-11 -2.7805025188932724e-11 0.00059045077557294144 -22.663982073999996 -103.20790935200000 43.238681550399988 69.202643319072678 0.0000000000000000 0.0000000000000000 0.0000000000000000 0.0000000000000000 3.0942891535986941 3.1905959851748196 1.0963191559176397 1.0470869403573657 1102.8248951230419 1102.8248911885269 1.0470530047929547 
-30.467703737913769 -110.94691288344578 41.872700012688512 -30.467703737913777 -110.94691288344576 41.872700012688505 -505.88214788955719 1.2877355754459920e-06 2.7936855165444102e-05 -3.2583811648459857e-05 -501.43451037555309 1.3129446141402215e-10 2.4004020993118044e-11 6.1875784762577268e-07 0.00060735621221703158 -2.8729828508387124e-12 3.8829930781765775e-11 -3.6082328894036348e-11 0.00061840119124070142 -30.151660686400003 -110.77310694400001 46.988755992800002 74.715282964229786 0.0000000000000000 0.0000000000000000 0.0000000000000000 0.0000000000000000 3.0947579472131950 3.1915418319467350 1.0967962283579014 1.0470869403573664 1078.1077547348739 1078.1077525804833 1.0472815443901775 
-18.962467437259129 -103.69841096338418 44.991795214128061 -18.962467437259132 -103.69841096338421 44.991795214128054 -496.27185375426717 -1.8643450679962693e-05 1.4424166342328686e-05 -3.4709608320883537e-05 -497.13364439173887 9.4433502684232464e-11 1.8138490709418417e-11 6.0673212942674581e-07 0.00061853735168993017 -2.2823752726725462e-11 2.0639450732281591e-11 -3.7083688333644236e-11 0.00062001501760730767 -18.735150314000002 -103.56704831999998 50.008419303199993 79.719497061372692 0.0000000000000000 0.0000000000000000 0.0000000000000000 0.0000000000000000 3.0943272358686618 3.1906717721955657 1.0963568486870781 1.0470869403573662 1062.4371912290846 1062.4371874338426 1.0470705970814047 
-25.771707764385905 -98.589034087821034 45.997679906917043 -25.771707764385912 -98.589034087821034 45.997679906917035 -503.22026802493053 5.3258495464487175e-07 6.7117451586348404e-06 -5.3595777832031028e-05 0.0000000000000000 1.1624863571757517e-10 1.4012568883003949e-11 6.0285392322612097e-07 0.00060342236990705437 -1.0907811486842365e-11 1.8826437386487985e-11 -4.8938727125398677e-11 0.0000000000000000 -25.491879232152165 -98.487589184379729 50.982237960580505 72.292163684038698 0.0000000000000000 0.0000000000000000 0.0000000000000000 0.0000000000000000 3.0942437371721452 3.1905126573913232 1.0962813612241791 1.0470869403573657 1073.2004344375573 1073.2004433206541 1.0470340049611340 
-25.634660361546832 -104.30601326835190 105.65019450212498 -25.634660361546825 -104.30601326835189 105.65019450212502 -149.71436431076867 1.6815776543359408e-05 5.6364195725190271e-05 -9.3633193089087951e-06 0.0000000000000000 4.2780997647180850e-08 1.0235939950598093e-07 3.4575498319287550e-07 0.00073817268629918517 -5.7718418834480048e-11 -1.5685614085976415e-12 1.2264076532586354e-10 0.0000000000000000 -25.283559732051039 -104.23282252886388 108.75695162467670 96.378087069502698 0.0000000000000000 0.0000000000000000 0.0000000000000000 0.0000000000000000 3.1132459527030147 3.2292187672090629 1.1159670526493413 1.0594888287014559 487.26741100599611 487.21626760246915 1.0563499253445565 
-26.282360167593872 -118.16193363422657 107.59967230667681 -26.282360167593875 -118.16193363422654 107.59967230667687 -111.39066644768539 2.6258941724883968e-05 4.8925391302843816e-06 -2.1323723689244851e-05 0.0000000000000000 3.6628365260922235e-08 1.0304336058053378e-07 3.8687008788682880e-07 0.00077333343094058938 -4.2244279698811910e-11 8.7417887621012057e-11 1.1968664624622925e-10 0.0000000000000000 -25.913646985361510 -118.01095136745833 110.66456878241424 88.846747377876298 0.0000000000000000 0.0000000000000000 0.0000000000000000 0.0000000000000000 3.1514142343035725 3.3085634786134226 1.1571977159843738 1.0705243582822059 494.25161517480092 494.30944476356080 1.0757762465602949 
-36.793408567956327 -112.70919300654636 109.04657527528462 -36.793408567956327 -112.70919300654633 109.04657527528467 -114.18886429956865 -1.6976587817723460e-05 3.3980069964833138e-05 2.1529323589280418e-05 0.0000000000000000 3.8067506791542305e-08 1.9611431584614794e-07 3.1828840990365130e-07 0.00074751570696663403 3.3884993864867805e-11 1.2728237033135407e-11 -4.1994701998315339e-11 0.0000000000000000 -36.236867317722961 -112.72601430119678 112.03758904139967 95.996160021407249 0.0000000000000000 0.0000000000000000 0.0000000000000000 0.0000000000000000 3.1555864223334011 3.3173246221111019 1.1618002651378412 1.0746060177273551 507.90462127221690 507.86885078831392 1.0778750266777732 
-33.850056215647406 -105.03817847068096 102.33917857291983 -33.850056215647420 -105.03817847068100 102.33917857291986 -147.61069968619032 1.2329650782794551e-06 6.4483376652466919e-05 -1.4279961962754897e-05 0.0000000000000000 -2.3063824346852124e-08 2.1763987410180902e-07 2.1513729189034036e-07 0.00075540567709293273 -4.4412097714928779e-11 -3.6781348990652978e-12 1.2022743778931843e-10 0.0000000000000000 -33.380789828628046 -105.09637623893835 105.63342596379557 85.433794965156210 0.0000000000000000 0.0000000000000000 0.0000000000000000 0.0000000000000000 3.1383116999444955 3.2808331226579819 1.1425367936367830 1.0658732373945334 517.19824589220650 517.20470476531602 1.0688876695806409 
-113.17327308904252 -161.13113714359497 122.10592515526322 -113.17327308904252 -161.13113714359497 122.10592515526325 -335.59082047171057 2.6447603658249188e-06 -8.3433419009159240e-06 -2.1339253829364703e-05 -334.51928188730693 3.9625229486528473e-10 6.4580119030210881e-11 3.0941737083622911e-07 0.00074515352507544723 -9.8485034695145129e-13 3.5888570248686972e-12 5.7903436649175535e-12 0.00074468426606701099 -112.21942232800005 -160.66347960400000 124.66427103520003 147.55923210393107 0.0000000000000000 0.0000000000000000 0.0000000000000000 0.0000000000000000 3.1019321136541858 3.2066015754149793 1.1046902260322591 1.0470869403573648 797.90060915039192 768.21179290719613 1.0510854782355050 
-100.38786993021165 -158.54721646088129 113.76045470361973 -100.38786993021172 -158.54721646088132 113.76045470361976 -345.13491091439562 -1.9349142619977393e-05 -1.4400284475166201e-05 -4.0856416568926065e-05 0.0000000000000000 3.5530360598112765e-10 6.2495231212267299e-11 3.4159346729012446e-07 0.00075652959296955685 -1.1570975943280034e-12 1.1620490479326580e-11 1.8197530865878101e-11 0.0000000000000000 -99.532617471171264 -158.09468895943013 116.58484116745363 117.70414803503969 0.0000000000000000 0.0000000000000000 0.0000000000000000 0.0000000000000000 3.0760565962758322 3.1514698233354612 1.0753840191111470 1.0388538211639111 760.74801217487015 746.04639118841408 1.0369710405222525 
-105.23519656079678 -149.25308592625669 118.20919302769632 -105.23519656079678 -149.25308592625663 118.20919302769639 -326.44470952506617 -1.6619161040822382e-05 -1.6089756370471678e-05 -1.8968543608224785e-05 0.0000000000000000 3.7082130421861592e-10 5.4982018937721477e-11 3.2444127828767932e-07 0.00074685227392054120 1.1758138516094136e-12 8.2321247255293033e-12 1.7553621659337701e-11 0.0000000000000000 -104.34256255272837 -148.85497981259945 120.89176065121424 119.29379793442074 0.0000000000000000 0.0000000000000000 0.0000000000000000 0.0000000000000000 3.0771183580464383 3.1545463195971397 1.0774232775006036 1.0395055382332530 731.19781956897509 740.01468522259404 1.0379441638976064 
-101.39341671613909 -162.76025146729717 122.00629345054256 -101.39341671613916 -162.76025146729717 122.00629345054264 -331.59602998508450 -1.0837524528383269e-05 -2.2273671562599321e-05 -1.9356158544004428e-05 0.0000000000000000 3.5852247559642341e-10 6.5915273239625094e-11 3.0980149912096522e-07 0.00074861451475015232 1.9638482251940436e-14 9.1672052625929182e-12 1.5027349239754207e-11 0.0000000000000000 -100.53040969477119 -162.28305471776312 124.56781543385799 141.51484144144280 0.0000000000000000 0.0000000000000000 0.0000000000000000 0.0000000000000000 3.0791828881048482 3.1592473754750903 1.0800626669926003 1.0401067706047218 743.98813983609341 733.95720739310889 1.0392292759362405 
-79.091547335348352 -149.19520518341855 85.730284332364860 -79.091547335348338 -149.19520518341852 85.730284332364832 -354.66083886635045 -4.8149167265267639e-05 -3.4039685798824661e-05 -1.6445864583455924e-05 -354.89749502234156 2.8706652333010396e-10 5.4926840853397601e-11 4.4966423740078199e-07 0.00072370063725625045 -1.9951207221589383e-11 -2.5357987825844678e-11 -3.6352814279311778e-12 0.00072402390979463163 -78.400527573600002 -148.79743798799998 89.448228916799977 108.06316173413846 0.0000000000000000 0.0000000000000000 0.0000000000000000 0.0000000000000000 3.1008613751568963 3.2040621976524357 1.1032188141406039 1.0470869403573673 830.37167334849971 830.37227354305458 1.0503746651362500 
-80.853974513012318 -163.01332291467810 83.999903284553056 -80.853974513012332 -163.01332291467813 83.999903284553056 -429.95728092916005 -2.8052579432585105e-05 -5.5469349504568584e-05 -3.0374354987384097e-05 -432.49752419675946 2.9271356172255736e-10 6.6112670893403447e-11 4.5633575052050901e-07 0.00069113815671397903 2.2254557919658185e-11 -3.1006900551937542e-11 6.3786553381612698e-12 0.00068270989523770025 -80.149363288800018 -162.53464431600008 87.773009718400019 109.57810873427631 0.0000000000000000 0.0000000000000000 0.0000000000000000 0.0000000000000000 3.1017924509979555 3.2057940716889970 1.1040154515825800 1.0470869403573657 963.66362050115993 963.65840632616175 1.0507664543178117 
-85.032312286686860 -160.64926935986904 91.437177494949694 -85.032312286686832 -160.64926935986901 91.437177494949680 -395.69879886557089 -2.0377586966689004e-05 -3.8255972046193305e-05 -5.6514555107473559e-05 0.0000000000000000 3.0610962375998696e-10 6.4211080896825479e-11 4.2766120955661791e-07 0.00070217658712403515 -2.5743444184966717e-11 9.5649781580521542e-12 -1.8832892910587848e-11 0.0000000000000000 -84.295478612813938 -160.18443337667750 94.973195224810283 106.11323630727971 0.0000000000000000 0.0000000000000000 0.0000000000000000 0.0000000000000000 3.0764937353889645 3.1544414063963861 1.0779531336463790 1.0398628392843388 847.20182390599189 847.21242428072230 1.0381849955904452 
-87.227775299127586 -151.80318723988299 89.021457776021762 -87.227775299127629 -151.80318723988293 89.021457776021805 -381.95616774771003 -2.3094793404709142e-05 -4.9641942837478691e-05 -5.4501560768830858e-05 0.0000000000000000 3.1313444892600018e-10 5.7039595269259286e-11 4.3697505436313122e-07 0.00071390427105468609 -5.5656147580148495e-13 -2.9789454281252092e-12 -5.4706581868683626e-12 0.0000000000000000 -86.474010682800568 -151.39014911596544 92.634484883397832 94.367740677547317 0.0000000000000000 0.0000000000000000 0.0000000000000000 0.0000000000000000 3.0857701818377961 3.1733741415259540 1.0876164376723663 1.0415147973503758 839.02477415222393 839.02308496421040 1.0428878654030169 
-26.302579028183970 -132.73226425391434 136.54662568584760 -26.302579028183970 -132.73226425391434 136.54662568584760 -203.51782121604850 1.7259261525009058e-05 -1.4813980427767106e-05 6.7524703389614348e-05 -214.51239955391625 1.1795185661522822e-10 4.1629255598252264e-11 2.5374100953712286e-07 0.00072865329778378104 1.5786704965252200e-11 -6.0603164577279839e-12 2.2519171576593387e-11 0.00072015984657286764 -26.018656529999991 -132.43089511199997 138.64462455200004 49.421240865332216 0.0000000000000000 0.0000000000000000 0.0000000000000000 0.0000000000000000 3.0933239833384074 3.1885554355701022 1.0952447617104695 1.0502985240613696 550.32238352876743 551.35099308714678 1.0465630280624898 
-32.829705217503474 -134.26717003773729 135.47065089542662 -32.829705217503481 -134.26717003773729 135.47065089542667 -194.43139434586880 -1.8740046032228739e-06 1.1073596650311149e-05 3.8855516519210283e-05 -163.70647583391198 1.3886168603871596e-10 4.2871262095900420e-11 2.5788944491011989e-07 0.00074076596250635663 7.1694739328435208e-12 1.0179881576417929e-11 5.3260434758236663e-11 0.00069639499628656163 -32.495446914399992 -133.95681332000001 137.60295016000006 48.530522504776933 0.0000000000000000 0.0000000000000000 0.0000000000000000 0.0000000000000000 3.1181393075645185 3.2397732473146825 1.1216601155202368 1.0589712222029468 585.42737888251804 585.36423691237553 1.0590402178917193 
-28.720774965847923 -136.76375245838585 138.26686420733671 -28.720774965847912 -136.76375245838585 138.26686420733674 -205.04508799206963 2.0584671975664309e-05 1.3198140608079851e-05 2.1317776712548088e-05 -215.19986144246243 1.2569827123609656e-10 4.4883319283428597e-11 2.4710861712406995e-07 0.00072677054528620286 1.9610775798414666e-11 -8.6358352904265656e-12 1.8538463955735750e-11 0.00071779520685616384 -28.418203856399998 -136.43877710800004 140.31002455199999 44.353383947079159 0.0000000000000000 0.0000000000000000 0.0000000000000000 0.0000000000000000 3.0985421988538979 3.1991089233028811 1.1005767493498042 1.0528412597412222 565.26628073384938 565.18060815408080 1.0490706378662762 
-27.058114518040540 -129.78585368421020 141.92168397687169 -27.058114518040544 -129.78585368421014 141.92168397687163 -218.89265613965625 8.3505671470715545e-06 1.0307361077408593e-05 1.3204289955102499e-05 0.0000000000000000 1.2036989460728620e-10 3.9245384719777121e-11 2.3301738760750368e-07 0.00072118600580425396 -3.4865023939337457e-12 -2.1863817040007865e-13 9.3953051113558605e-12 0.0000000000000000 -26.768365491316434 -129.50173712462359 143.84833436668455 49.139845408488213 0.0000000000000000 0.0000000000000000 0.0000000000000000 0.0000000000000000 3.1008655403995959 3.2043801897184498 1.1035328603928323 1.0530382886109095 598.57568650948588 598.72829480859048 1.0504794676408917 
-40.461877916194034 -65.383079840422113 152.35947103262077 -40.461877916194034 -65.383079840422141 152.35947103262077 -307.31338570178679 -8.0799751445608571e-06 -3.5960490669643771e-07 1.3799062637594513e-05 -309.71716159834153 1.6331101748701116e-10 -1.2838896612521467e-11 1.9277434937237103e-07 0.00071517956919612364 -2.3778521683474953e-12 -1.2364667109012831e-13 2.2480687005913426e-12 0.00071458347395187392 -40.068761925200000 -65.476070995999990 153.95338104800004 156.95717166164070 0.0000000000000000 0.0000000000000000 0.0000000000000000 0.0000000000000000 3.0919851739820667 3.1859858196369402 1.0940149682325155 1.0456782487483944 728.57199657732178 728.57192969322750 1.0459539847295962 
-52.915916787894588 -59.528503892063291 147.51548578472998 -52.915916787894609 -59.528503892063306 147.51548578472995 -311.88067874315419 -8.5641537425659038e-06 -2.0606468948807968e-06 1.0630452906131816e-05 -313.04314814880860 2.0321087867980481e-10 -1.7574386390606378e-11 2.1145040651759925e-07 0.00071367998497926573 -8.6251073837787476e-13 -1.7091528365456384e-12 4.5333272273721674e-12 0.00071416158904955528 -52.426757905599978 -59.655776269200025 149.26381449600007 118.05125250056595 0.0000000000000000 0.0000000000000000 0.0000000000000000 0.0000000000000000 3.0965012853164491 3.1952620516246517 1.0987762891701554 1.0459018146291150 745.87521752809687 745.87517727557076 1.0482311641145452 
-35.527984116825330 -65.940040270234903 143.11084945522754 -35.527984116825330 -65.940040270234917 143.11084945522751 -298.83537212245767 -2.4161440740326786e-06 1.4020851827175501e-06 7.0834394820143505e-07 -298.66027761589623 1.4750776988758932e-10 -1.2394918424973866e-11 2.2843255820248490e-07 0.00071686943506236490 -7.5119098524640056e-13 6.4755111640635099e-13 6.7484426157710930e-13 0.00071728114250856686 -35.172917262399999 -66.029770167599992 144.99959110400002 155.12084301790807 0.0000000000000000 0.0000000000000000 0.0000000000000000 0.0000000000000000 3.0954497452388234 3.1928892065014196 1.0974517240375297 1.0468795143637188 721.73877666775775 721.73957437675494 1.0475942007443000 
-50.886335428531311 -66.503698769540691 140.22265790692214 -50.886335428531311 -66.503698769540719 140.22265790692211 -304.51407064119172 -8.5911184700188203e-06 4.7835679282159044e-06 6.4724747796900053e-06 0.0000000000000000 1.9670991224796097e-10 -1.1939005339911546e-11 2.3956801165070374e-07 0.00071586893812892419 -8.4139333966201396e-13 1.7161267458154454e-12 1.6981623381900783e-12 0.0000000000000000 -50.412828244765279 -66.590128188430739 142.20347059834828 136.07757377940416 0.0000000000000000 0.0000000000000000 0.0000000000000000 0.0000000000000000 3.0849312025683719 3.1709825885128082 1.0860496528585204 1.0432371786463830 709.10110164312164 709.10106199767336 1.0421281853096795 
-95.376323320562406 -159.17294256616483 73.519666616268566 -95.376323320562420 -159.17294256616486 73.519666616268552 -500.97446471213203 -1.1709755432103220e-05 -1.6356704811010824e-05 -2.3544314465358386e-05 -501.07384715830807 3.3923901188170907e-10 6.3005489714385034e-11 4.9674246316300241e-07 0.00070151337909035087 7.0191123745714190e-13 -5.3942541181656128e-12 5.8125922413816315e-14 0.00070236636271490331 -94.559718839999974 -158.71675115199997 77.626866652000004 109.98746742214213 0.0000000000000000 0.0000000000000000 0.0000000000000000 0.0000000000000000 3.0939361186415892 3.1898808816219502 1.0959571400562742 1.0470869403573659 1070.3667222248200 1070.0195774153451 1.0468781347933780 
-90.460836772791708 -158.92112208600639 78.489587085840512 -90.460836772791708 -158.92112208600639 78.489587085840498 -467.90474387291312 -4.2119077251833946e-05 -3.7806125137439389e-05 -4.8296793152257698e-05 -456.83493513464055 3.2349971312850561e-10 6.2805316503045105e-11 4.7758085397475714e-07 0.00069903325251810414 2.5181151584681721e-12 -1.1226372215407159e-11 5.6043728173839739e-12 0.00070696604789095645 -89.682139475999989 -158.46640519600001 82.438353807199988 112.88451412247700 0.0000000000000000 0.0000000000000000 0.0000000000000000 0.0000000000000000 3.0949830654735635 3.1919040090641966 1.0969321910247365 1.0470869403573657 1010.5246536204887 1010.5926628204926 1.0473391536312422 
-103.58981174706705 -155.37800898594483 82.797550452686608 -103.58981174706699 -155.37800898594477 82.797550452686650 -463.05968346233021 -9.6658008903904563e-06 -8.8778512058373879e-06 -5.4970118102339002e-05 0.0000000000000000 3.6556184468405922e-10 5.9939386787277726e-11 4.6097143968637516e-07 0.00070733781093495725 6.6606770951704149e-12 2.3709884252343442e-12 -1.0501284593822905e-11 0.0000000000000000 -102.70986659571734 -154.94403864466588 86.608986019839278 111.02505284862640 0.0000000000000000 0.0000000000000000 0.0000000000000000 0.0000000000000000 3.0960575158166774 3.1942319328128135 1.0981871306278881 1.0458603459660347 1012.0787469891949 1012.1520160803410 1.0479566120368349 
-101.26911309517223 -167.67991692118213 79.761866716063238 -101.26911309517222 -167.67991692118210 79.761866716063210 -488.46651401397020 -5.5977369016195315e-06 -1.1227898131312917e-05 -5.2555859690947208e-05 0.0000000000000000 3.5812124099532388e-10 6.9894756649091505e-11 4.7267556535501859e-07 0.00069890471659231010 1.0486610551885593e-11 -2.6867418959362194e-12 9.0895601827251706e-12 0.0000000000000000 -100.40706467681501 -167.17391327890167 83.670075146830683 105.53983917324770 0.0000000000000000 0.0000000000000000 0.0000000000000000 0.0000000000000000 3.0942085549577363 3.1904412934472259 1.0962451459658888 1.0460976771153105 1046.5067141376612 1046.3612036964330 1.0470188807857186 
-115.59660119448971 -99.915060824850570 93.088900489060279 -115.59660119448971 -99.915060824850570 93.088900489060279 -392.78910268931264 -9.1397406666400789e-06 -1.2668948662717605e-05 -3.9265797666699271e-05 -397.40535611084977 4.0401541851434261e-10 1.5083712057162302e-11 4.2129296407011912e-07 0.00069584465775646099 -4.2094622504929647e-12 -4.1174839648104615e-12 -1.5769976696017093e-11 0.00069616697334150886 -114.62406224400000 -99.805851428000011 96.572263865600007 85.211636250682801 0.0000000000000000 0.0000000000000000 0.0000000000000000 0.0000000000000000 3.0965942510834248 3.1949257132750679 1.0983285746029503 1.0425013468785105 886.13796809615451 886.13628363774126 1.0479976106783755 
-112.03261637577475 -91.155560487136313 96.858060065862404 -112.03261637577475 -91.155560487136327 96.858060065862432 -372.58528153121568 -4.1060189882181186e-06 -6.1636163185562587e-07 -4.2932175562442319e-05 -369.78264118452529 3.9260854289846487e-10 7.9961592902577666e-12 4.0676091916935770e-07 0.00070089192574247468 -2.5063055103498029e-13 8.3488833299441811e-12 -3.1742778700639905e-11 0.00070772371884857664 -111.08756211600000 -91.097641973600034 100.22126851279998 99.535403830130534 0.0000000000000000 0.0000000000000000 0.0000000000000000 0.0000000000000000 3.1036999615707823 3.2099752135151576 1.1062965018939166 1.0454101691109849 864.89709420345514 864.89686320540193 1.0518363811755285 
-113.86352186436601 -97.752350626864313 105.29247898912665 -113.86352186436601 -97.752350626864342 105.29247898912666 -345.06152609118163 -3.9180916648726388e-06 -2.5479852616310982e-06 -3.7536723898640387e-05 -344.57344012492348 3.9846741184401674e-10 1.3337109194822007e-11 3.7424187837586942e-07 0.00070995861379814394 6.5385639855852837e-13 6.1847250260683688e-12 -1.1318240798394229e-11 0.00071006772782824742 -112.90434805199999 -97.655804887999992 108.38681131359999 128.09762094244454 0.0000000000000000 0.0000000000000000 0.0000000000000000 0.0000000000000000 3.0962053860393728 3.1948106040875568 1.0986215482568424 1.0453620107047437 805.09115110088726 805.09168608028756 1.0481530421394640 
-108.06915519222646 -103.97417869690473 97.197786512317663 -108.06915519222642 -103.97417869690477 97.197786512317649 -367.86653903736084 -4.2659641836292237e-05 -4.0659464664538166e-06 -4.5740648642969461e-05 0.0000000000000000 3.7990947887589504e-10 1.8365198251046880e-11 4.0545109580847338e-07 0.00070470475334793211 -1.3017835901019258e-11 5.1861384260136980e-13 1.2333595823907629e-13 0.0000000000000000 -107.15466629968294 -103.84120130723400 100.55016500991876 102.24201981555134 0.0000000000000000 0.0000000000000000 0.0000000000000000 0.0000000000000000 3.0790590107880242 3.1581235144494384 1.0790491373034217 1.0385846947121631 804.03215188662455 804.03237268638975 1.0387402701093114 
-27.230611430552269 -115.50342559382122 99.984810802831106 -27.230611430552251 -115.50342559382123 99.984810802831063 -132.47255956164835 3.5581969399803489e-05 1.7760757829821048e-05 -5.1548826223587643e-05 0.0000000000000000 3.5805433170921684e-08 1.2858612442779810e-07 3.0962622458438980e-07 0.00081545722609765764 2.7078513593663060e-11 8.3520052166911015e-11 1.2179771612783501e-10 0.0000000000000000 -26.889884864405381 -115.37486796036181 103.37575244326078 96.382960025775517 0.0000000000000000 0.0000000000000000 0.0000000000000000 0.0000000000000000 3.1325686325833852 3.2695338170617698 1.1369943391555521 1.0662229371984655 492.83354152343594 492.81082291550263 1.0662909035707593 
-110.50158141271326 -103.75345833493739 150.54572034510349 -110.50158141271324 -103.75345833493742 150.54572034510346 -317.54484124736439 9.8354892120610460e-07 3.2985140485749079e-06 3.1310829051867249e-07 -318.87197783743284 3.8769891463896755e-10 1.8186896433292074e-11 1.9976728182768966e-07 0.00070642994017074351 2.0750065217065966e-12 4.5151229266581586e-12 3.9322526468115938e-12 0.00070598560844915088 -109.56833416800004 -103.62177336400003 152.19744990400002 70.302883591683823 0.0000000000000000 0.0000000000000000 0.0000000000000000 0.0000000000000000 3.0905377307039910 3.1826926559718580 1.0921621650807318 1.0451391706796196 743.68283514156235 743.67868192698540 1.0450702355882098 