# For a description of the Tecplot format see the Tecplot User's guide.
#
Variables=x,y,z,s_u,s_v,s_w,s_p,mono_f_vel_u,mono_f_vel_v,mono_f_vel_w,const,u_nu,v_nu,w_nu,p_nu,x_nu,y_nu,z_nu,const,u_ref,v_ref,w_ref,vol_ref,x_ref,y_ref,z_ref,const,I1,I2,I3,J,p1,p2,p3
Zone f=fepoint, n=3174, e=16683, et=brick, c=black
-25.1922 -154.611 109.125 -25.192209420814770 -154.61108493487288 109.12455003457170 -67.226087180736783 -1.1530404645418369e-05 -3.8559076537056418e-05 -4.8885543882570732e-05 -57.287411267118415 3.0150394680905634e-10 1.5636864025836417e-10 9.4414002838050237e-07 -0.00018252562715519516 4.1938310116532280e-11 3.1153601810991401e-10 -2.3196447234661798e-10 -0.00012763507348509355 -24.903554063199991 -154.16086777200002 112.24023381839994 89.724962256112903 0.0000000000000000 0.0000000000000000 0.0000000000000000 0.0000000000000000 3.1007316606163027 3.2035707100128543 1.1028474030790760 1.0505426197888674 485.10670294646661 485.10721282124564 1.0501552780662491 
-37.837355779984371 -155.66267573675117 111.87268994498126 -37.837355779984371 -155.66267573675120 111.87268994498120 -48.584036295378169 2.8539922354618605e-05 -1.8682725772359825e-05 -2.1101076935181360e-05 0.0000000000000000 -1.0597025688369893e-07 -5.2306107400479080e-08 8.3090822641505191e-07 -0.00026712740966078363 -1.9687886383778229e-10 1.1828509018257343e-10 -4.4946144889820774e-10 0.0000000000000000 -37.438273663334591 -155.10473791080037 114.93291110338620 89.036758072416930 0.0000000000000000 0.0000000000000000 0.0000000000000000 0.0000000000000000 3.1160809920490076 3.2357447613558081 1.1196939178418222 1.0562124559675263 510.02376893355398 510.02257995879143 1.0581633686197298 
-31.885383568359671 -148.29049330678629 117.00915306813961 -31.885383568359661 -148.29049330678623 117.00915306813967 -37.042234075517435 6.8540267829777571e-06 -1.0957134550272949e-05 -1.6012419714535186e-05 0.0000000000000000 3.5801993314432679e-10 1.4290618688406198e-10 8.6429656853681546e-07 -0.00028024496711244207 1.3482402799875591e-11 2.1136900019028013e-13 2.6574005130777872e-10 0.0000000000000000 -31.542619574254449 -147.87907313389167 119.86135157363466 98.260374494724786 0.0000000000000000 0.0000000000000000 0.0000000000000000 0.0000000000000000 3.1058644486191720 3.2144119983059634 1.1085646181378723 1.0533125488851618 462.86363057007833 462.86395364975391 1.0528763132041272 
-28.966825706713173 -143.34846666186203 109.00483660822292 -28.966825706713170 -143.34846666186198 109.00483660822286 -38.415916958440341 3.1289891235174313e-06 -2.4275073298732793e-05 -7.5251884496469454e-06 0.0000000000000000 3.3337700655611258e-10 1.3237327900483820e-10 9.4535231909276263e-07 -0.00025679364259765391 -1.5986320985907439e-10 -3.0878100398485144e-11 1.2971486309574620e-11 0.0000000000000000 -28.647655777685479 -142.96738158566356 112.12452093910819 112.69127588814607 0.0000000000000000 0.0000000000000000 0.0000000000000000 0.0000000000000000 3.1084821984292619 3.2198778422852135 1.1114177419793199 1.0535365959624470 470.78101063098791 470.78184908230782 1.0542382436182498 
-24.545285724587860 -201.16815296700597 69.279327096186861 -24.545285724587863 -201.16815296700594 69.279327096186861 -357.85406259965538 4.1738948421562874e-06 4.3066777267832722e-07 2.1798134516367715e-06 -360.51167930183834 2.9604159401674934e-10 2.5562835181958126e-10 1.3476328595274369e-06 -0.00027641082917680555 -4.5235868957166006e-12 -2.2564027583488538e-12 -1.5240085667458808e-12 -0.00027610745243382119 -24.261860196399997 -200.43215969199997 73.726546483199982 142.71380061529433 0.0000000000000000 0.0000000000000000 0.0000000000000000 0.0000000000000000 3.0992151627560500 3.2006633637226787 1.1014625330203494 1.0494465608025427 996.45156332946658 996.45338496497914 1.0495059530492619 
-24.439971918179868 -188.29605963320600 70.917403590396404 -24.439971918179872 -188.29605963320597 70.917403590396390 -350.17641143019421 1.1399062694896380e-05 -1.4224278323444225e-05 -4.2276153980750388e-06 -353.28976135144518 2.9515050126160958e-10 2.2819895972858717e-10 1.3310448796488572e-06 -0.00027466224142219848 -3.2735681968415008e-12 -6.4281949720167000e-13 6.3821692491658039e-13 -0.00027164107068424045 -24.157397762799999 -187.63907770800003 75.309882232799993 165.73632395326644 0.0000000000000000 0.0000000000000000 0.0000000000000000 0.0000000000000000 3.0991757655313417 3.2005729360760808 1.1014113262247547 1.0494465608025414 983.48293624331723 983.48623122409640 1.0494811833664570 
-35.255551214460716 -196.11631305944260 77.421554215849426 -35.255551214460716 -196.11631305944249 77.421554215849469 -344.56713768514123 6.2951519975498681e-06 -1.0551158481943358e-05 -2.1985399051775135e-05 0.0000000000000000 3.8647800237878727e-10 2.4485097283033492e-10 1.2651805629815269e-06 -0.00028024024238423905 -9.6795548400121502e-12 -2.0551774911330434e-12 5.4379172892844808e-13 0.0000000000000000 -34.885542273181727 -195.41132893576267 81.596679120775832 139.46796289390394 0.0000000000000000 0.0000000000000000 0.0000000000000000 0.0000000000000000 3.0984818122482531 3.1991729668212483 1.1007054159383225 1.0488200954436424 971.20188683494462 971.18875111453940 1.0491447899049759 
-19.061696319476329 -195.22923909716766 77.231478190478697 -19.061696319476326 -195.22923909716766 77.231478190478754 -354.79166896978415 5.8717774500977760e-06 -6.5995301393814260e-06 -1.0503031389277094e-05 0.0000000000000000 2.4973627332780529e-10 2.4295981893018848e-10 1.2671053717383529e-06 -0.00027548239164239968 -2.7011895492004587e-12 2.0120091574692902e-12 7.8461534709120219e-13 0.0000000000000000 -18.822600960987238 -194.52970000168264 81.412954998504986 111.95285379220412 0.0000000000000000 0.0000000000000000 0.0000000000000000 0.0000000000000000 3.0993004942420819 3.2008301223499989 1.1015439080423164 1.0494465608025429 995.47513051435453 995.47561833068073 1.0495448452468710 
-22.934384834700925 -103.34343596367486 37.737403712172046 -22.934384834700925 -103.34343596367488 37.737403712172046 -307.08839856457001 -1.2811000854562074e-05 1.4027146461996485e-05 -1.9323092371698795e-05 -311.46582484523157 2.8243814231831976e-10 4.7078840825776076e-11 1.6670422926523543e-06 -0.00052506999137614326 -1.7454366976123017e-11 2.2484170265280082e-11 -2.6167107291506871e-11 -0.00052553498374122197 -22.663982073999996 -103.20790935200000 43.238681550399988 69.202643319072678 0.0000000000000000 0.0000000000000000 0.0000000000000000 0.0000000000000000 3.0990542386676472 3.2003328692178945 1.1012928857934110 1.0494465608025416 908.77645348739145 908.77645348505314 1.0494251673699095 
-30.483088312651820 -110.95535697025120 41.617129662390283 -30.483088312651827 -110.95535697025117 41.617129662390290 -296.41946549161247 2.4677085843485061e-06 2.1953066756694649e-05 -2.7285720021234889e-05 -293.35401399078194 3.4617946009785072e-10 6.3304195219160407e-11 1.6277542354004026e-06 -0.00051085244407449561 -7.9119710869756217e-12 4.0072926930583333e-11 -3.1839319026083387e-11 -0.00050057773210737753 -30.151660686400003 -110.77310694400001 46.988755992800002 74.715282964229786 0.0000000000000000 0.0000000000000000 0.0000000000000000 0.0000000000000000 3.0992884906762082 3.2008034887571521 1.1015292283822047 1.0494465608025425 888.29696282670363 888.29696282785164 1.0495379847390507 
-18.973532946389192 -103.70479300974728 44.741191940680167 -18.973532946389188 -103.70479300974728 44.741191940680160 -288.57744903539992 -1.5577353964428694e-05 1.0664979908797354e-05 -2.9158778002476456e-05 -289.39726340472100 2.4899386719123839e-10 4.7840231776064002e-11 1.5961184036683560e-06 -0.00049864339414452670 -2.5709323863069615e-11 2.7597033161765635e-11 -3.7344517931761491e-11 -0.00049807008173908911 -18.735150314000002 -103.56704831999998 50.008419303199993 79.719497061372692 0.0000000000000000 0.0000000000000000 0.0000000000000000 0.0000000000000000 3.0990644958612124 3.2003521627488403 1.1013019015772429 1.0494465608025410 875.49853061494889 875.49853061664373 1.0494293202228164 
-25.785329462276014 -98.593962628084725 45.748678478314837 -25.785329462276007 -98.593962628084697 45.748678478314815 -293.13973201989097 1.7973331762149075e-06 4.1722953085494959e-06 -4.6507453229718642e-05 0.0000000000000000 3.0651046978302782e-10 3.6941283365621302e-11 1.5859160846787292e-06 -0.00051995654141709239 -1.7211275388902468e-11 2.2457748804195013e-11 -3.8873608325214051e-11 0.0000000000000000 -25.491879232152165 -98.487589184379729 50.982237960580505 72.292163684038698 0.0000000000000000 0.0000000000000000 0.0000000000000000 0.0000000000000000 3.0990939001968916 3.2004200431557548 1.1013405113933556 1.0494465608025421 882.75537402812904 882.75537403023930 1.0494475502120473 
-25.605190828252454 -104.35920840622541 105.51148021497822 -25.605190828252457 -104.35920840622535 105.51148021497826 -32.432156651204956 7.2262901372519405e-06 2.7110642616480624e-05 3.9683045562316167e-06 0.0000000000000000 -1.1959265145018155e-08 5.2674893178179186e-08 7.9220962684812762e-07 -0.00024884894859262928 3.2722393195597125e-10 7.3481909403176191e-11 -7.0909368070184789e-10 0.0000000000000000 -25.283559732051039 -104.23282252886388 108.75695162467670 96.378087069502698 0.0000000000000000 0.0000000000000000 0.0000000000000000 0.0000000000000000 3.1068699076089383 3.2164167621393842 1.1095629388324530 1.0542760067751096 450.43826363788924 450.43826682744350 1.0533529463585509 
-26.243702627058653 -118.22327905163090 107.47183469299034 -26.243702627058642 -118.22327905163091 107.47183469299034 -18.341341455960823 5.4203555660222784e-06 -2.3388669860947775e-06 -5.3793301857342683e-06 0.0000000000000000 7.0284808492360561e-09 1.5021641387581731e-08 7.0259127991598299e-07 -0.00025755288757712560 1.9616191316424778e-10 -2.0012095814634640e-10 -4.6876101486924179e-10 0.0000000000000000 -25.913646985361510 -118.01095136745833 110.66456878241424 88.846747377876298 0.0000000000000000 0.0000000000000000 0.0000000000000000 0.0000000000000000 3.1186675712841638 3.2407155738376865 1.1220738550014062 1.0574279293695632 471.55911573034291 471.55909061214294 1.0592854480135652 
-36.688422552288550 -112.86039098038965 108.89678229621914 -36.688422552288550 -112.86039098038965 108.89678229621907 -19.841200724539281 -1.1772473367472849e-05 2.4171108103879472e-06 1.4931417504057999e-06 0.0000000000000000 -1.3131436503362714e-07 1.5627942589256147e-07 5.8965846521110871e-07 -0.00014146469353234809 -1.8419397095232499e-10 -1.3536580977635476e-10 -3.8508185022635478e-13 0.0000000000000000 -36.236867317722961 -112.72601430119678 112.03758904139967 95.996160021407249 0.0000000000000000 0.0000000000000000 0.0000000000000000 0.0000000000000000 3.1182890880895835 3.2399766525511500 1.1217150459175687 1.0584318389908098 475.06796027075131 475.06793234219901 1.0591103715942483 
-33.785191399947657 -105.18046936133210 102.24249731605023 -33.785191399947642 -105.18046936133213 102.24249731605020 -29.495069054005572 -3.4143197108199929e-06 2.8062818636683436e-05 6.0618861993749382e-06 0.0000000000000000 -9.1582575149853350e-08 2.5019825547258321e-07 6.3010030922962403e-07 -0.00024739257416796342 1.9251805905038669e-10 1.2413312480653975e-10 -2.8030593296789038e-10 0.0000000000000000 -33.380789828628046 -105.09637623893835 105.63342596379557 85.433794965156210 0.0000000000000000 0.0000000000000000 0.0000000000000000 0.0000000000000000 3.1166187074237830 3.2363685422012902 1.1197716089998297 1.0568209065733944 470.04793625476850 470.04793921917559 1.0581922408831268 
-113.21970533380131 -161.15385754585591 121.97812410006344 -113.21970533380134 -161.15385754585594 121.97812410006348 -143.91920179065536 2.8308593829296671e-06 -8.5863366913851608e-06 -1.7421083030496146e-05 -142.90763018960749 1.0448112791605624e-09 1.7033302546209939e-10 8.1397825368867405e-07 -0.00032610650699445705 1.3395894891749998e-12 -2.0506799383454334e-12 -4.0285306387408471e-11 -0.00032005510750944923 -112.21942232800005 -160.66347960400000 124.66427103520003 147.55923210393107 0.0000000000000000 0.0000000000000000 0.0000000000000000 0.0000000000000000 3.1023325679522293 3.2072158359319114 1.1049017461160537 1.0494465608025443 635.12108132643891 635.12116144874460 1.0511508121573152 
-100.42950253473495 -158.56920179415746 113.61936370681561 -100.42950253473497 -158.56920179415741 113.61936370681556 -153.43577011066483 -1.3405832407435101e-05 -1.3308868325552107e-05 -3.3722801814668636e-05 0.0000000000000000 9.3680611878976784e-10 1.6480444786637347e-10 8.9862328067624720e-07 -0.00035937500906109323 9.2219232278484685e-12 5.4511431476866282e-11 -4.9901794823887709e-11 0.0000000000000000 -99.532617471171264 -158.09468895943013 116.58484116745363 117.70414803503969 0.0000000000000000 0.0000000000000000 0.0000000000000000 0.0000000000000000 3.0913425045259877 3.1837675871194011 1.0924214453830630 1.0460340415745493 611.97279003936239 611.97293302647461 1.0451827691706217 
-105.27864885169537 -149.27242728243937 118.07518652934947 -105.27864885169537 -149.27242728243937 118.07518652934947 -134.72607346291309 -1.1255794008449410e-05 -1.7004061793231493e-05 -1.2781924038830221e-05 0.0000000000000000 9.7775591789694971e-10 1.4499074163509820e-10 8.5350137268846993e-07 -0.00034323003135035399 5.5462773588552822e-11 -1.2376220961711948e-11 -5.6748281095645764e-11 0.0000000000000000 -104.34256255272837 -148.85497981259945 120.89176065121424 119.29379793442074 0.0000000000000000 0.0000000000000000 0.0000000000000000 0.0000000000000000 3.0918074699393214 3.1850683659723034 1.0932658909366681 1.0465375010253555 581.49024510361733 581.49025189757538 1.0455852645581072 
-101.43542680291714 -162.78343531699286 121.87833373448052 -101.43542680291709 -162.78343531699286 121.87833373448042 -142.57988465449571 -6.1189533960306839e-06 -2.0778512226190229e-05 -1.7181879241947800e-05 0.0000000000000000 9.4529477301374953e-10 1.7379581107590525e-10 8.1498878401475849e-07 -0.00033126896622270489 2.3041841865472521e-11 2.5618628109546757e-12 -3.4723278628186932e-11 0.0000000000000000 -100.53040969477119 -162.28305471776312 124.56781543385799 141.51484144144280 0.0000000000000000 0.0000000000000000 0.0000000000000000 0.0000000000000000 3.0929244744794331 3.1875817174452599 1.0946651537681864 1.0466289006449474 598.97189771115018 598.97175977293455 1.0462573200904510 
-79.125185300553298 -149.21453007379441 85.544556028466843 -79.125185300553298 -149.21453007379438 85.544556028466815 -169.80236098163607 -3.7833391430266525e-05 -2.7963493207658464e-05 -1.2911755507703433e-05 -170.76946731954425 7.5690968770469880e-10 1.4488049648875290e-10 1.1829229489279669e-06 -0.00039152810145764652 2.4097372886039022e-11 2.3490768455442771e-11 1.5215695551618282e-12 -0.00039999005950764184 -78.400527573600002 -148.79743798799998 89.448228916799977 108.06316173413846 0.0000000000000000 0.0000000000000000 0.0000000000000000 0.0000000000000000 3.1031980465636169 3.2087468942465374 1.1055648990788893 1.0494465608025432 686.20104011642911 686.24084294036777 1.0514698884812286 
-80.888274093364558 -163.03657875767186 83.811419394470661 -80.888274093364558 -163.03657875767186 83.811419394470676 -234.69394924210729 -2.0993450138343955e-05 -4.9799339982071259e-05 -2.4594966302502063e-05 -236.36213412858751 7.7180088708939099e-10 1.7434026444718140e-10 1.2004735641113486e-06 -0.00036083596154278745 3.6089554520993973e-11 3.3541100016399893e-11 2.8355699271688931e-11 -0.00036586381119752242 -80.149363288800018 -162.53464431600008 87.773009718400019 109.57810873427631 0.0000000000000000 0.0000000000000000 0.0000000000000000 0.0000000000000000 3.1035798161320893 3.2094717479027413 1.1059066516787934 1.0494465608025410 799.02949496031590 798.98247319534505 1.0516362395255787 
-85.068180415003269 -160.67185268127261 91.260537267908717 -85.068180415003269 -160.67185268127255 91.260537267908646 -203.75389961110486 -1.3533370405106364e-05 -3.3388057196870483e-05 -4.8506134927947551e-05 0.0000000000000000 8.0709532113143467e-10 1.6930562507511127e-10 1.1250400371309865e-06 -0.00037291010040133525 -2.0580572750941368e-11 -2.5011632018224288e-12 -6.3628154553200690e-12 0.0000000000000000 -84.295478612813938 -160.18443337667750 94.973195224810283 106.11323630727971 0.0000000000000000 0.0000000000000000 0.0000000000000000 0.0000000000000000 3.0884006507501467 3.1788561157388062 1.0904688597146448 1.0452535859769632 685.73659788749978 685.79058334839613 1.0442345556687942 
-87.264467604239925 -151.82325404417878 88.840970579036679 -87.264467604239883 -151.82325404417873 88.840970579036650 -190.56605193161116 -1.6262693035805242e-05 -4.3314857611444750e-05 -4.6567131226876408e-05 0.0000000000000000 8.2564015346786590e-10 1.5044226975291508e-10 1.1495417968632182e-06 -0.00041445300620011633 -6.6286296320577005e-11 7.2300015850451233e-11 7.5736081814011049e-13 0.0000000000000000 -86.474010682800568 -151.39014911596544 92.634484883397832 94.367740677547317 0.0000000000000000 0.0000000000000000 0.0000000000000000 0.0000000000000000 3.0938998266253654 3.1899937788232422 1.0961088948441289 1.0463250646160969 680.84250263426338 680.82939335324397 1.0469514263940229 
-26.316400015141930 -132.74690579725234 136.44182106540711 -26.316400015141934 -132.74690579725234 136.44182106540711 -62.945918124014938 9.9430314289153051e-06 -9.1089965744393941e-06 4.0667338269155005e-05 -69.594346815578305 3.1099707531456744e-10 1.0976669573281582e-10 6.6751155181066224e-07 -0.00023871679790182188 -9.1931321552085702e-12 4.3200933162467020e-12 1.0165802862543139e-10 -0.00023860554434109720 -26.018656529999991 -132.43089511199997 138.64462455200004 49.421240865332216 0.0000000000000000 0.0000000000000000 0.0000000000000000 0.0000000000000000 3.0985333764247756 3.1992117240713833 1.1006920297085669 1.0504541431557786 481.48449468746702 481.48467191004426 1.0491412122750712 
-32.845976487576579 -134.28224822823859 135.36413281350841 -32.845976487576571 -134.28224822823859 135.36413281350846 -56.606024653945873 -2.9118687015656126e-07 7.9273617848949572e-06 1.6138862854075930e-05 -27.921933299345870 3.6612927967194503e-10 1.1303263880435567e-10 6.7842478834734255e-07 -0.00025895881321628418 -4.0292031105173268e-11 -6.7148833139375294e-11 6.3215099398817530e-11 -0.00012463502848966384 -32.495446914399992 -133.95681332000001 137.60295016000006 48.530522504776933 0.0000000000000000 0.0000000000000000 0.0000000000000000 0.0000000000000000 3.1078069611020855 3.2184917683361420 1.1107060130954916 1.0536603189951039 503.97243418297995 503.97344847007724 1.0538975193588189 
-28.735503743540011 -136.77954087204438 138.16479902137493 -28.735503743540004 -136.77954087204441 138.16479902137490 -61.886709205327620 1.0480632142159025e-05 1.1544173399507179e-05 1.2602226443388446e-05 -67.090359626014077 3.3142334709967974e-10 1.1835804558657514e-10 6.5006381522181300e-07 -0.00029122387099237541 2.6083896347625857e-11 -1.0169988409852842e-10 -3.1859191524142477e-11 -0.00031059518306116843 -28.418203856399998 -136.43877710800004 140.31002455199999 44.353383947079159 0.0000000000000000 0.0000000000000000 0.0000000000000000 0.0000000000000000 3.0997935875282043 3.2017796371445324 1.1019994612043555 1.0512252267584008 484.38683397056980 484.38809659011253 1.0497618706704022 
-27.072219133014869 -129.79965703810970 141.82543899500658 -27.072219133014869 -129.79965703810970 141.82543899500658 -71.330720927319319 7.2829099453971544e-06 8.7750713792263853e-06 5.7964954656402606e-06 0.0000000000000000 3.1737630579176113e-10 1.0347772638752417e-10 6.1299432108086183e-07 -0.00026008553571753784 -2.1682736280494731e-11 -2.6139421736745455e-11 2.4922214109877462e-11 0.0000000000000000 -26.768365491316434 -129.50173712462359 143.84833436668455 49.139845408488213 0.0000000000000000 0.0000000000000000 0.0000000000000000 0.0000000000000000 3.1014431219695875 3.2053798428554274 1.1039541231203043 1.0513606222023035 511.10677354926344 511.10640167530204 1.0506910656516328 
-40.481014303832367 -65.378562012134196 152.27984795137266 -40.481014303832360 -65.378562012134211 152.27984795137266 -122.06243802860132 -3.5765158513660046e-06 -2.0672261381029857e-06 1.2281272473363740e-05 -123.73583620237513 4.3059804333278611e-10 -3.3870128923751963e-11 5.0712772026173535e-07 -0.00028482671066615945 9.7902314262111400e-15 -6.4281065478737853e-12 1.6243967382742963e-11 -0.00028421927295677496 -40.068761925200000 -65.476070995999990 153.95338104800004 156.95717166164070 0.0000000000000000 0.0000000000000000 0.0000000000000000 0.0000000000000000 3.0984058161149814 3.1990438665146779 1.1006529109920178 1.0488833023819162 583.54902520326061 583.57481870660581 1.0491205553437801 
-52.939728421617893 -59.522320564819687 147.42814878472203 -52.939728421617893 -59.522320564819672 147.42814878472203 -124.09082831555664 -7.1608510123966368e-06 -9.5570612266247504e-07 7.1211513708455211e-06 -125.12223199227994 5.3580233305705594e-10 -4.6353088034578604e-11 5.5625847483753432e-07 -0.00028243793938800187 -3.7168732773168367e-12 7.4207200079816399e-13 -6.9685944012886874e-13 -0.00028047737466941724 -52.426757905599978 -59.655776269200025 149.26381449600007 118.05125250056595 0.0000000000000000 0.0000000000000000 0.0000000000000000 0.0000000000000000 3.0998775505211920 3.2020758215760430 1.1022138516775031 1.0489207715974627 592.43289699279580 592.36182695190041 1.0498646528300526 
-35.545268320773957 -65.935680885021668 143.01649818802559 -35.545268320773964 -65.935680885021640 143.01649818802565 -115.80515733950268 4.8554310415143108e-08 -2.7436340601051210e-07 -5.1262053386978734e-07 -115.51786695043921 3.8892215836749950e-10 -3.2673974637020820e-11 6.0093305886965698e-07 -0.00027611118453312066 -3.9420949382261533e-12 2.7869973757131200e-12 -3.0217671168495194e-13 -0.00027348613549717487 -35.172917262399999 -66.029770167599992 144.99959110400002 155.12084301790807 0.0000000000000000 0.0000000000000000 0.0000000000000000 0.0000000000000000 3.0993009234168674 3.2008069272595443 1.1015200359061124 1.0492973752878030 576.27352771260473 576.27622138856509 1.0495333364522901 
-50.909385157429831 -66.499499732856577 140.12370727084800 -50.909385157429831 -66.499499732856535 140.12370727084803 -118.86169653825426 -6.2319917558088771e-06 4.7261113566141883e-06 3.8156900111977314e-06 0.0000000000000000 5.1865754746582848e-10 -3.1477709327987213e-11 6.3022694085645981e-07 -0.00028106155474867260 -1.8081640310670026e-12 -2.0897577894809434e-12 8.6404222171794463e-13 0.0000000000000000 -50.412828244765279 -66.590128188430739 142.20347059834828 136.07757377940416 0.0000000000000000 0.0000000000000000 0.0000000000000000 0.0000000000000000 3.0949779553708225 3.1917923445242007 1.0968229253689545 1.0478580849700736 565.25907320396016 565.25370936682202 1.0472918244965246 
-95.416074590531679 -159.19510590484808 73.314493225680707 -95.416074590531693 -159.19510590484808 73.314493225680721 -292.31021922395792 -1.1116791577909127e-05 -1.4452813007080462e-05 -2.1702719768220032e-05 -292.10466142246156 8.9447597939607003e-10 1.6614126741032464e-10 1.3067707307357068e-06 -0.00039418225545033181 -4.3719880561173364e-11 4.8084945347944634e-11 -1.6782841113778403e-11 -0.00037980039225738127 -94.559718839999974 -158.71675115199997 77.626866652000004 109.98746742214213 0.0000000000000000 0.0000000000000000 0.0000000000000000 0.0000000000000000 3.0988766095175189 3.1999742560849311 1.1011119447340685 1.0494465608025416 881.73369079786426 881.73431050266129 1.0493383048495415 
-90.498742769153367 -158.94321378726440 78.292328162531817 -90.498742769153367 -158.94321378726440 78.292328162531831 -263.79281630223949 -3.4916362100640090e-05 -3.3310139877930092e-05 -4.0610467199323302e-05 -254.10177207330210 8.5295530360962612e-10 1.6561146898297352e-10 1.2563626654582549e-06 -0.00037754248136459057 -3.6126882234254000e-11 7.1032511725585871e-11 7.3170399671739894e-12 -0.00036918503219513150 -89.682139475999989 -158.46640519600001 82.438353807199988 112.88451412247700 0.0000000000000000 0.0000000000000000 0.0000000000000000 0.0000000000000000 3.0995921542282949 3.2013605007443235 1.1017818528319734 1.0494465608025432 830.83530385050517 830.83011776119065 1.0496566788992818 
-103.63264636052077 -155.39909274893026 82.607151847428355 -103.63264636052084 -155.39909274893031 82.607151847428355 -257.80511495568771 -7.0337595170365688e-06 -6.7441345426231576e-06 -5.0156015711040296e-05 0.0000000000000000 9.6384515646530409e-10 1.5806439490617663e-10 1.2126685868807385e-06 -0.00042593743468970365 -3.3731669464030633e-11 5.3220957424122921e-11 -3.1834254853501443e-11 0.0000000000000000 -102.70986659571734 -154.94403864466588 86.608986019839278 111.02505284862640 0.0000000000000000 0.0000000000000000 0.0000000000000000 0.0000000000000000 3.0998694170049776 3.2020122083115825 1.1021573454671278 1.0487035811171925 828.22241683193738 828.22287077606723 1.0498400876235900 
-101.31107651837205 -167.70450030822229 79.566633864512625 -101.31107651837205 -167.70450030822221 79.566633864512639 -280.35111025108785 -3.2610629839232567e-06 -9.5495053186797234e-06 -4.8006093572112401e-05 0.0000000000000000 9.4424749963462042e-10 1.8428453207874895e-10 1.2434584082399167e-06 -0.00037311924188318670 -3.1691797937160523e-11 2.7165927456296965e-11 -8.8737607305505317e-12 0.0000000000000000 -100.40706467681501 -167.17391327890167 83.670075146830683 105.53983917324770 0.0000000000000000 0.0000000000000000 0.0000000000000000 0.0000000000000000 3.0989581069258496 3.2001399487585060 1.1011960576980551 1.0488438397839450 858.37394213527034 858.37529290129885 1.0493793619136218 
-115.64394315659838 -99.920366590751982 92.914890587327562 -115.64394315659841 -99.920366590751968 92.914890587327577 -191.86707894656666 -7.8480828505406490e-06 -1.0657702601433049e-05 -3.4315773869440520e-05 -195.92472237538774 1.0652684702803745e-09 3.9779568528075522e-11 1.1082872299894575e-06 -0.00058299096062248610 -1.4936527104995218e-11 -9.2979995947481171e-12 -8.0156139611587461e-11 -0.00058299834877632481 -114.62406224400000 -99.805851428000011 96.572263865600007 85.211636250682801 0.0000000000000000 0.0000000000000000 0.0000000000000000 0.0000000000000000 3.0999629712099126 3.2021494955999210 1.1021970185552035 1.0469883231482773 709.79550561071665 709.79550559165796 1.0498506255988538 
-112.07862041801323 -91.158374366555506 96.690052451354035 -112.07862041801324 -91.158374366555535 96.690052451354035 -174.35262372258975 -3.2202344826777196e-06 1.4177617662613609e-07 -3.7580577670635349e-05 -172.33672924699641 1.0351637741434772e-09 2.1092294577584880e-11 1.0700580306277629e-06 -0.00055792084282844836 2.4560054994227790e-12 3.1712650709480512e-11 -9.8553129354424392e-11 -0.00053726075957017717 -111.08756211600000 -91.097641973600034 100.22126851279998 99.535403830130534 0.0000000000000000 0.0000000000000000 0.0000000000000000 0.0000000000000000 3.1035880378712832 3.2095879376641530 1.1060167255426927 1.0485329317014855 692.42901725461093 692.42901721773717 1.0516780488608342 
-113.91021322850909 -97.757041148961903 105.13790296431787 -113.91021322850908 -97.757041148961903 105.13790296431786 -148.38760226552222 -4.0764261665454789e-06 -3.0262417377653659e-06 -3.7050029700653496e-05 -148.34723451584063 1.0506402831067518e-09 3.5168590262202315e-11 9.8451082841677362e-07 -0.00049530670698191956 -2.3161033890946030e-11 -4.3670098471354036e-11 -9.4445645955272601e-11 -0.00048981040031811636 -112.90434805199999 -97.655804887999992 108.38681131359999 128.09762094244454 0.0000000000000000 0.0000000000000000 0.0000000000000000 0.0000000000000000 3.0998644291394366 3.2021278450400383 1.1022798182345019 1.0487262886340250 636.92229995462674 636.92230030612882 1.0498932890099231 
-108.11367135117084 -103.98063919316348 97.030319903215883 -108.11367135117088 -103.98063919316341 97.030319903215926 -170.34554452267767 -3.5184166775781208e-05 -4.3041928190156452e-06 -4.0112680508442265e-05 0.0000000000000000 1.0016888846164917e-09 4.8427206689183315e-11 1.0666123060332211e-06 -0.00057396236838087747 3.9060123102946704e-11 -4.1209579524829027e-11 -7.0017312425831436e-11 0.0000000000000000 -107.15466629968294 -103.84120130723400 100.55016500991876 102.24201981555134 0.0000000000000000 0.0000000000000000 0.0000000000000000 0.0000000000000000 3.0918728338446191 3.1850696560243299 1.0931992782723876 1.0454045958816385 641.20090339769024 641.20090302072470 1.0455551001400636 
-27.207883372851999 -115.57015478765287 99.898744359360307 -27.207883372852017 -115.57015478765287 99.898744359360379 -27.029840981333038 1.8292980118890430e-05 2.6411529351258575e-06 -2.3503044825700977e-05 0.0000000000000000 6.1319328295191933e-09 5.4480097329934563e-08 7.9768077757107718e-07 -0.00040910950124922534 1.4792681158681599e-10 -2.1188589629564912e-10 -3.6700623272409029e-10 0.0000000000000000 -26.889884864405381 -115.37486796036181 103.37575244326078 96.382960025775517 0.0000000000000000 0.0000000000000000 0.0000000000000000 0.0000000000000000 3.1138414461856025 3.2307891006173111 1.1169703143126875 1.0564910903915310 463.83623825209895 463.83622510991557 1.0568672058092228 
-110.54701070443981 -103.75985604107511 150.46320891371840 -110.54701070443981 -103.75985604107512 150.46320891371846 -122.42307631262535 2.1051664283478565e-07 6.8012402274042354e-07 3.0787899946425182e-07 -123.04755315942451 1.0222332286202731e-09 4.7959358706606275e-11 5.2552390439331010e-07 -0.00027058833427293035 -7.9833946885579514e-14 -1.9897775134733789e-12 3.5293240254859553e-12 -0.00026718574792179885 -109.56833416800004 -103.62177336400003 152.19744990400002 70.302883591683823 0.0000000000000000 0.0000000000000000 0.0000000000000000 0.0000000000000000 3.0974247574471456 3.1968970772275918 1.0994843729555848 1.0486581750357482 580.55911189589301 580.55815518362385 1.0485635804638700 