# For a description of the Tecplot format see the Tecplot User's guide.
#
Variables=x,y,z,s_u,s_v,s_w,s_p,mono_f_vel_u,mono_f_vel_v,mono_f_vel_w,const,u_nu,v_nu,w_nu,p_nu,x_nu,y_nu,z_nu,const,u_ref,v_ref,w_ref,vol_ref,x_ref,y_ref,z_ref,const,I1,I2,I3,J,p1,p2,p3
Zone f=fepoint, n=3174, e=16683, et=brick, c=black
-25.0040 -154.318 111.174 -25.003987008822893 -154.31771377544143 111.17439764845518 -36.470115890621216 -4.5529166331044897e-06 -1.7115125356152536e-05 -2.0617098433630773e-05 -33.507059335978859 9.7362953463409063e-10 6.6578564883457148e-10 7.2704726239436457e-07 0.00025061788066686101 -8.8047001221599815e-13 -3.6139972624628903e-11 1.1291624135672667e-11 0.00022994387587431598 -24.903554063199991 -154.16086777200002 112.24023381839994 89.724962256112903 0.0000000000000000 0.0000000000000000 0.0000000000000000 0.0000000000000000 3.0343959107177203 3.0690362947436238 1.0346406523592575 1.0173575494489264 191.54845710090828 191.54838497856738 1.0171715054820054 
-37.578977127580295 -155.30459095050992 113.88452381373193 -37.578977127580295 -155.30459095050992 113.88452381373192 -28.221402903899222 1.3030832062892144e-05 -1.1235094238200676e-05 -9.7431155077361559e-06 0.0000000000000000 1.7751796672601501e-08 5.3978431964868601e-08 7.7299381604550236e-07 0.00028773611992246803 7.4184683721095970e-11 -6.7524961031027458e-11 9.4544833751092503e-11 0.0000000000000000 -37.438273663334591 -155.10473791080037 114.93291110338620 89.036758072416930 0.0000000000000000 0.0000000000000000 0.0000000000000000 0.0000000000000000 3.0407938232098481 3.0820392397219609 1.0412467661186782 1.0196728849391374 201.23002416595077 201.23027444879122 1.0204161779946912 
-31.661878741539340 -148.02240309812919 118.88565039792553 -31.661878741539340 -148.02240309812908 118.88565039792549 -22.794873657449351 3.7781920781551599e-06 -7.4443443936033767e-06 -5.5485437034819195e-06 0.0000000000000000 1.1561371131285636e-09 6.0842197946442411e-10 6.6556275513107721e-07 0.00027043476218087484 7.7984801256285674e-12 2.6378888860855127e-11 -5.4459023969828429e-11 0.0000000000000000 -31.542619574254449 -147.87907313389167 119.86135157363466 98.260374494724786 0.0000000000000000 0.0000000000000000 0.0000000000000000 0.0000000000000000 3.0367740580721319 3.0738793811784819 1.0371060486000478 1.0185847782528337 180.85177483164435 180.85179443939163 1.0183826857457587 
-28.758705773054970 -143.10014345282892 111.05731623241562 -28.758705773054992 -143.10014345282892 111.05731623241567 -23.184852197982426 2.9527887149465240e-06 -1.1805384353474874e-05 -6.0401808976747869e-06 0.0000000000000000 1.0765547446556225e-09 5.6355692334975071e-10 7.2798079120417469e-07 0.00026738391259541238 1.0563852599157130e-10 1.5037480139575548e-11 1.8243138931550196e-11 0.0000000000000000 -28.647655777685479 -142.96738158566356 112.12452093910819 112.69127588814607 0.0000000000000000 0.0000000000000000 0.0000000000000000 0.0000000000000000 3.0378205377294161 3.0760068395002560 1.0381873011092260 1.0186514240907310 183.89792686805234 183.89774957480316 1.0189147514605426 
-24.360473507775367 -200.68856396368045 72.205208758569285 -24.360473507775367 -200.68856396368048 72.205208758569270 -144.44383547119222 1.1720428986002217e-06 8.7840046507368983e-08 6.8068458044936418e-07 -145.35402721259962 9.5598854873979455e-10 1.0884033119218373e-09 1.0377621353363509e-06 0.00029944502421569072 -1.7306668399748643e-12 -6.8069073828424106e-13 -1.1519999854359519e-12 0.00029968112584261372 -24.261860196399997 -200.43215969199997 73.726546483199982 142.71380061529433 0.0000000000000000 0.0000000000000000 0.0000000000000000 0.0000000000000000 3.0338214755594226 3.0679059288596062 1.0340850382321387 1.0168794568376276 381.07705439085419 381.06956927962659 1.0168997323272950 
-24.255714852828095 -187.86795612001850 73.807270627256656 -24.255714852828099 -187.86795612001853 73.807270627256671 -141.66810637152403 3.7842678461041647e-06 -4.9905387466138402e-06 -1.4843821258349583e-06 -142.68477640111479 9.5311705403111624e-10 9.7156444001100795e-10 1.0249883457547071e-06 0.00029809552775279167 -4.3017697717411075e-12 4.1304146997746650e-12 2.3824045859020541e-12 0.00029929435828421645 -24.157397762799999 -187.63907770800003 75.309882232799993 165.73632395326644 0.0000000000000000 0.0000000000000000 0.0000000000000000 0.0000000000000000 3.0338075149773838 3.0678766281629284 1.0340696907758165 1.0168794568376280 376.39403336062526 376.38415147344074 1.0168921391710857 
-35.014280877538603 -195.65693028419474 80.168421490523045 -35.014280877538589 -195.65693028419466 80.168421490523073 -139.91848703578165 1.8295124238880622e-06 -3.7561787099313617e-06 -7.8646507417547591e-06 0.0000000000000000 1.2480292597982776e-09 1.0425343921482977e-09 9.7426866796368472e-07 0.00029724838133625138 -2.3803132902565276e-12 4.5691718411599299e-12 2.2476303050097884e-13 0.0000000000000000 -34.885542273181727 -195.41132893576267 81.596679120775832 139.46796289390394 0.0000000000000000 0.0000000000000000 0.0000000000000000 0.0000000000000000 3.0335705334946499 3.0674013159797764 1.0338313647366493 1.0166605473290167 372.46404122275095 372.49325772402148 1.0167749396751082 
-18.905790309476203 -194.77340441907481 79.982524462225214 -18.905790309476188 -194.77340441907475 79.982524462225214 -143.19676693237224 1.9225504616238582e-06 -2.3386130425890424e-06 -3.7330562197095370e-06 0.0000000000000000 8.0646228931002817e-10 1.0344886058888392e-09 9.7575088986445735e-07 0.00029919505764785089 -2.5539033805766273e-12 3.4950916088066304e-12 2.2588571247682264e-13 0.0000000000000000 -18.822600960987238 -194.52970000168264 81.412954998504986 111.95285379220412 0.0000000000000000 0.0000000000000000 0.0000000000000000 0.0000000000000000 3.0338511437591085 3.0679648193570772 1.0341142583982981 1.0168794568376278 380.51365477092992 380.51173223306233 1.0169141154678594 
-22.758064324841161 -103.25512391677918 41.356763709015489 -22.758064324841165 -103.25512391677920 41.356763709015489 -130.36998491549869 -4.9516213279763843e-06 5.3808320549255332e-06 -7.3774729065763075e-06 -131.93456548543199 9.1206378213803951e-10 2.0041518444813275e-10 1.2837274998567239e-06 0.00029570457455016985 1.3933597267359684e-12 -8.1630470357558969e-12 1.1373529289495661e-11 0.00029871061527769017 -22.663982073999996 -103.20790935200000 43.238681550399988 69.202643319072678 0.0000000000000000 0.0000000000000000 0.0000000000000000 0.0000000000000000 3.0337652142406202 3.0677923784601679 1.0340277459683340 1.0168794568376274 356.85709217435021 356.90873932535919 1.0168715679894040 
-30.266975548525991 -110.83659894430978 45.151190298843865 -30.266975548525981 -110.83659894430978 45.151190298843865 -126.27430166993753 8.5867702904217454e-07 8.5316610181755161e-06 -1.0300314835334972e-05 -124.90942930261629 1.1178993529481485e-09 2.6951513243389513e-10 1.2534732221070046e-06 0.00029109219371115433 6.0564292158847894e-12 -1.0526308220068692e-11 1.3166482016673515e-11 0.00029404909086271639 -30.151660686400003 -110.77310694400001 46.988755992800002 74.715282964229786 0.0000000000000000 0.0000000000000000 0.0000000000000000 0.0000000000000000 3.0338533339421656 3.0679689399065073 1.0341161868322575 1.0168794568376278 349.05398629713130 349.06075690799656 1.0169150860327087 
-18.818091681012969 -103.61503561560703 48.206567180903313 -18.818091681012966 -103.61503561560700 48.206567180903328 -123.26347291430498 -5.9792895431841242e-06 4.1637646340512134e-06 -1.1015258193333427e-05 -123.52485857992976 8.0405833033370122e-10 2.0370458098106781e-10 1.2291116395779511e-06 0.00028807133671396903 3.4418130958588423e-12 -1.0841562860030498e-11 1.1779849122667131e-11 0.00028886597864540925 -18.735150314000002 -103.56704831999998 50.008419303199993 79.719497061372692 0.0000000000000000 0.0000000000000000 0.0000000000000000 0.0000000000000000 3.0337691168907130 3.0678000373579812 1.0340315013560704 1.0168794568376287 344.10641153680808 343.96063456567708 1.0168733937511827 
-25.593980475824171 -98.524647410705356 49.191903195958730 -25.593980475824182 -98.524647410705313 49.191903195958730 -125.19464633028214 4.8958592133510434e-07 1.7778698378015258e-06 -1.7466938509518918e-05 0.0000000000000000 9.8980202853371502e-10 1.5730175495498600e-10 1.2212552165102863e-06 0.00029207375339288969 1.5528932046653319e-12 -6.3519324469909966e-12 1.0390085995044150e-11 0.0000000000000000 -25.491879232152165 -98.487589184379729 50.982237960580505 72.292163684038698 0.0000000000000000 0.0000000000000000 0.0000000000000000 0.0000000000000000 3.0337766933871246 3.0678162763212198 1.0340401694012440 1.0168794568376274 347.16793852911098 347.04695914660437 1.0168776342782122 
-25.398600728285572 -104.27444328329555 107.64597949092725 -25.398600728285590 -104.27444328329555 107.64597949092727 -20.965975663987610 3.6147699396524060e-06 1.2622675682459894e-05 1.9384339218391504e-07 0.0000000000000000 1.9089433689164811e-08 -1.9933808849930307e-09 8.3057164415406109e-07 0.00020784220905901751 -1.3686906188067219e-10 -2.9531042651872052e-11 2.9422016956473955e-10 0.0000000000000000 -25.283559732051039 -104.23282252886388 108.75695162467670 96.378087069502698 0.0000000000000000 0.0000000000000000 0.0000000000000000 0.0000000000000000 3.0371710828436855 3.0746683093494771 1.0374978337310667 1.0189815573029659 175.84706064768758 175.84704625429032 1.0185753886642674 
-26.032308432177626 -118.08185226871339 109.57119082561537 -26.032308432177619 -118.08185226871331 109.57119082561533 -13.405768568216326 4.0610456423979445e-06 -2.7551664826545815e-07 -3.7172559125815086e-06 0.0000000000000000 1.1717299920476326e-08 3.1123053632799231e-08 8.6368258347731123e-07 0.00021740380399596902 -1.1472652793680242e-10 1.0664936883015178e-10 2.2332770537696906e-10 0.0000000000000000 -25.913646985361510 -118.01095136745833 110.66456878241424 88.846747377876298 0.0000000000000000 0.0000000000000000 0.0000000000000000 0.0000000000000000 3.0425450155669624 3.0855364070984588 1.0429926165807901 1.0204513104968818 183.35758723443115 183.35760337644811 1.0212712400293211 
-36.402205885937811 -112.76443028817143 110.96344759955203 -36.402205885937825 -112.76443028817140 110.96344759955208 -13.989443428726570 -4.7726608059329891e-06 3.7826610455047815e-06 2.1987611109757805e-06 0.0000000000000000 8.2508502264651442e-08 1.2707103095439213e-09 8.6489344091801070e-07 0.00016369526702779717 7.3229257784207888e-11 7.6212349485188320e-12 -4.7770848118635993e-11 0.0000000000000000 -36.236867317722961 -112.72601430119678 112.03758904139967 95.996160021407249 0.0000000000000000 0.0000000000000000 0.0000000000000000 0.0000000000000000 3.0425858385714988 3.0856224436317303 1.0430379325299728 1.0209381385131235 185.19247684964077 185.19247524938115 1.0212922908162758 
-33.527239831628144 -105.11791932518437 104.47008086441572 -33.527239831628123 -105.11791932518432 104.47008086441568 -19.879916886541043 -8.4654135356769932e-07 1.3717133572995945e-05 6.8514090975887479e-07 0.0000000000000000 4.2418064066470034e-08 -4.0735744693660559e-08 9.2571646203404806e-07 0.00021864090704276876 -7.9653796824514065e-11 -5.9742008878171956e-11 1.9004290639564773e-10 0.0000000000000000 -33.380789828628046 -105.09637623893835 105.63342596379557 85.433794965156210 0.0000000000000000 0.0000000000000000 0.0000000000000000 0.0000000000000000 3.0411683513414558 3.0827302863676480 1.0415628499028704 1.0200187465916151 184.44873261518663 184.44877166566707 1.0205697737069841 
-112.56745456117693 -160.83431676148450 123.74537400973324 -112.56745456117689 -160.83431676148447 123.74537400973325 -70.331145840776173 9.9254693452517252e-07 -3.0606665068511648e-06 -6.9023690295776260e-06 -69.928508387225847 3.3739329073634310e-09 7.2517236660019080e-10 6.2681449541912571e-07 0.00024259990266432734 -2.3425463938375350e-12 6.8007124595934067e-12 1.5694274996695997e-11 0.00024121010630960763 -112.21942232800005 -160.66347960400000 124.66427103520003 147.55923210393107 0.0000000000000000 0.0000000000000000 0.0000000000000000 0.0000000000000000 3.0351754948292218 3.0706596261474250 1.0354849163557698 1.0168794568376271 256.97768979370943 256.97759698828622 1.0175891811316371 
-99.844674068918835 -158.25999905386041 115.57038868831906 -99.844674068918764 -158.25999905386047 115.57038868831900 -73.908824873506092 -5.2548176123103402e-06 -4.8533707141000272e-06 -1.3250787141213892e-05 0.0000000000000000 3.0251727199670504e-09 7.0172290200787302e-10 6.9199649521678442e-07 0.00025751315470831936 1.8908371365748567e-12 -3.0585935376022317e-12 1.2448933228515004e-11 0.0000000000000000 -99.532617471171264 -158.09468895943013 116.58484116745363 117.70414803503969 0.0000000000000000 0.0000000000000000 0.0000000000000000 0.0000000000000000 3.0303453681789230 3.0607881199893838 1.0304424539753969 1.0154511917552009 245.60364006162649 245.60278761933549 1.0151059150014630 
-104.66825858393784 -149.00040955782129 119.92824612833631 -104.66825858393788 -149.00040955782137 119.92824612833634 -67.044644718875873 -4.5632457402660328e-06 -5.9154740590840532e-06 -5.5910433266593848e-06 0.0000000000000000 3.1574068880269035e-09 6.1733257394891439e-10 6.5724978171033410e-07 0.00024400115886448690 -1.1292360390841789e-11 1.5209721301301901e-11 1.4308120383887516e-11 0.0000000000000000 -104.34256255272837 -148.85497981259945 120.89176065121424 119.29379793442074 0.0000000000000000 0.0000000000000000 0.0000000000000000 0.0000000000000000 3.0306209347988062 3.0613932705088489 1.0307724767328603 1.0156264026052404 234.67019612215248 234.67021029239214 1.0152681879551995 
-100.84529570541481 -162.45737658654309 123.64777762755702 -100.84529570541478 -162.45737658654306 123.64777762755696 -69.552971350902482 -2.5906051014307493e-06 -7.6308113944911481e-06 -6.6585068077289198e-06 0.0000000000000000 3.0526103277084271e-09 7.3997197258535142e-10 6.2759267027701071e-07 0.00024671295328792782 -6.2378466597452864e-12 1.0228791651828777e-11 1.5349151532577060e-11 0.0000000000000000 -100.53040969477119 -162.28305471776312 124.56781543385799 141.51484144144280 0.0000000000000000 0.0000000000000000 0.0000000000000000 0.0000000000000000 3.0311201581996690 3.0624303347024129 1.0313104420556416 1.0156954192994230 240.67921962193853 240.67959986408712 1.0155336130284025 
-78.652660465529351 -148.94274392504261 88.112831601573760 -78.652660465529365 -148.94274392504261 88.112831601573788 -78.799030799427243 -1.4645297004640948e-05 -1.0769329599937256e-05 -4.9125583749716080e-06 -79.012400701096482 2.4442585143391589e-09 6.1680349716652927e-10 9.1092513443413747e-07 0.00028055777158555220 -7.5569827703710938e-13 1.0123511265302173e-11 5.7889499191689081e-12 0.00028868226444701790 -78.400527573600002 -148.79743798799998 89.448228916799977 108.06316173413846 0.0000000000000000 0.0000000000000000 0.0000000000000000 0.0000000000000000 3.0352833683555196 3.0708457754859255 1.0355630774180768 1.0168794568376280 273.11644657301980 273.02765786734705 1.0176278122779685 
-80.406455307698351 -162.70950751016053 86.417799578120963 -80.406455307698337 -162.70950751016056 86.417799578120977 -103.57903993205218 -8.3149867297201064e-06 -1.8393170569274530e-05 -9.2805604621285733e-06 -104.22683884529989 2.4923376105989714e-09 7.4226319535242169e-10 9.2444021149162847e-07 0.00028368376011518110 -5.0735048213511550e-12 1.0663944851731266e-11 7.3077306232345182e-12 0.00028623631737118526 -80.149363288800018 -162.53464431600008 87.773009718400019 109.57810873427631 0.0000000000000000 0.0000000000000000 0.0000000000000000 0.0000000000000000 3.0354279127005959 3.0711294637658986 1.0357021561775599 1.0168794568376269 316.51644923417797 317.50000415448756 1.0176967409490663 
-84.564327660769507 -160.35423980839610 93.703141711152099 -84.564327660769493 -160.35423980839610 93.703141711152071 -92.103460510053466 -5.7523683834827177e-06 -1.2607787862653935e-05 -1.8002881560564278e-05 0.0000000000000000 2.6063018097877148e-09 7.2081357549436120e-10 8.6635165441606432e-07 0.00028055086944722474 2.1773434294460288e-12 9.9073545457196239e-12 8.0521025479744490e-12 0.0000000000000000 -84.295478612813938 -160.18443337667750 94.973195224810283 106.11323630727971 0.0000000000000000 0.0000000000000000 0.0000000000000000 0.0000000000000000 3.0297928859502057 3.0598219829304676 1.0300296158931559 1.0152932477460108 273.57100150931160 273.59600150815271 1.0149008337186318 
-86.749037336260841 -151.54103358386888 91.336771431931055 -86.749037336260869 -151.54103358386882 91.336771431931069 -87.132534894991409 -6.6418816921596877e-06 -1.6271666471043241e-05 -1.7505212759380222e-05 0.0000000000000000 2.6661917638948203e-09 6.4047955827817304e-10 8.8521954877407438e-07 0.00028604382657282661 1.5505287638423396e-11 -8.8686234472589345e-13 4.7749078026792568e-12 0.0000000000000000 -86.474010682800568 -151.39014911596544 92.634484883397832 94.367740677547317 0.0000000000000000 0.0000000000000000 0.0000000000000000 0.0000000000000000 3.0318875865215635 3.0640324024820784 1.0321454264383725 1.0156950943619183 271.90574006207868 271.87472097466588 1.0159454573870679 
-26.122251542058429 -132.54098645705301 137.89107323094575 -26.122251542058432 -132.54098645705295 137.89107323094575 -34.133565281216214 4.4194279355774230e-06 -3.8016495246256188e-06 1.6892110021996840e-05 -37.025078617709816 1.0042816682431788e-09 4.6732401282056912e-10 5.1402592582405759e-07 0.00020018327446327632 1.3522748595821666e-11 -3.0536916163373097e-12 -3.3951436726707990e-11 0.00019291630051129061 -26.018656529999991 -132.43089511199997 138.64462455200004 49.421240865332216 0.0000000000000000 0.0000000000000000 0.0000000000000000 0.0000000000000000 3.0335369565146304 3.0673243883920280 1.0337879909231023 1.0173586984825784 188.28338510864222 188.28338541209902 1.0167542064699704 
-32.617407988855597 -134.07018786221391 136.83707895118994 -32.617407988855582 -134.07018786221394 136.83707895119002 -31.438809800896887 -1.1603906556366073e-07 3.2689723245375982e-06 7.8659783657730284e-06 -20.636240890748070 1.1823273991795613e-09 4.8125259333176018e-10 5.2242978521022110e-07 0.00021592679810645386 2.2553814824085733e-11 3.1547874785853588e-11 1.8641086097432861e-11 0.00013418066224829770 -32.495446914399992 -133.95681332000001 137.60295016000006 48.530522504776933 0.0000000000000000 0.0000000000000000 0.0000000000000000 0.0000000000000000 3.0377211829462425 3.0758042443323195 1.0380840099115607 1.0187910747139504 199.21427211569619 199.21427148233983 1.0188633278291368 
-28.528603201053127 -136.55749189480861 139.57616992429456 -28.528603201053116 -136.55749189480863 139.57616992429459 -33.903205936798550 4.8141291546500756e-06 4.1557054228558068e-06 5.4048739233743598e-06 -36.261416397267354 1.0702452778177385e-09 5.0393467176945705e-10 5.0059005474167851e-07 0.00021816755797120671 3.8673839672540310e-12 2.1940129318219669e-11 1.8347811792473716e-11 0.00021857101729228897 -28.418203856399998 -136.43877710800004 140.31002455199999 44.353383947079159 0.0000000000000000 0.0000000000000000 0.0000000000000000 0.0000000000000000 3.0341991157375641 3.0686574119638141 1.0344588374444932 1.0177321420421430 190.57639924046950 190.57639867500345 1.0170833997196203 
-26.874086433155817 -129.60552603279794 143.15632734519571 -26.874086433155821 -129.60552603279800 143.15632734519571 -37.793611641720304 2.8077600593121351e-06 3.3671225023634750e-06 2.8495938698092869e-06 0.0000000000000000 1.0248915986721396e-09 4.4056353010191179e-10 4.7204423481161934e-07 0.00020491020460633024 6.2602443660056178e-12 6.5993334031512389e-12 -6.6838669914430574e-13 0.0000000000000000 -26.768365491316434 -129.50173712462359 143.84833436668455 49.139845408488213 0.0000000000000000 0.0000000000000000 0.0000000000000000 0.0000000000000000 3.0349690669753557 3.0702436905031889 1.0352753771751078 1.0178071932878721 201.63165503865420 201.63165543010339 1.0174845503969658 
-40.212198447799906 -65.442100957360424 153.38088645941457 -40.212198447799899 -65.442100957360452 153.38088645941454 -61.273746798366126 -1.9534705099404324e-06 -4.7059825881292682e-07 4.5011691785260379e-06 -61.959831440038791 1.3905209587938838e-09 -1.4419337945881236e-10 3.9052025169183935e-07 0.00021148580424107990 -2.4976008514215634e-13 1.1256496572967007e-12 -6.6598875227511972e-12 0.00021181030239809083 -40.068761925200000 -65.476070995999990 153.95338104800004 156.95717166164070 0.0000000000000000 0.0000000000000000 0.0000000000000000 0.0000000000000000 3.0334584469043269 3.0671793176871054 1.0337214843164129 1.0166411214740165 235.06889424717926 235.06889414696161 1.0167210254242129 
-52.605237669035162 -59.609283164106131 148.63585638254747 -52.605237669035169 -59.609283164106152 148.63585638254747 -62.420974696273028 -2.7233174561526875e-06 -5.0357519666796431e-07 2.9887884657832535e-06 -62.793490831361204 1.7302415021569484e-09 -1.9735912903939837e-10 4.2835403446517262e-07 0.00021048135059865888 3.8460289913976118e-12 -1.2697322118821388e-12 -9.0624991191134543e-13 0.00021092031614835044 -52.426757905599978 -59.655776269200025 149.26381449600007 118.05125250056595 0.0000000000000000 0.0000000000000000 0.0000000000000000 0.0000000000000000 3.0341371753888429 3.0685507451642358 1.0344142201677651 1.0166631651271785 239.62838719529779 239.62838721426715 1.0170617314513088 
-35.302470768377908 -65.996991479544420 144.32120000116169 -35.302470768377916 -65.996991479544448 144.32120000116171 -58.759074196093316 -3.6874932105350875e-07 1.8901579193450229e-07 -6.4578649592660082e-08 -58.643257971594487 1.2559341587559114e-09 -1.3914558394390042e-10 4.6275629994596562e-07 0.00020825578724124649 7.0781691124513848e-13 -4.3365211632823210e-13 9.1016191448710546e-13 0.00020750941417969776 -35.172917262399999 -66.029770167599992 144.99959110400002 155.12084301790807 0.0000000000000000 0.0000000000000000 0.0000000000000000 0.0000000000000000 3.0338935985372784 3.0680466762699514 1.0341536503703703 1.0168252859030955 232.55662103010343 232.55662105402220 1.0169334771172722 
-50.585597161373684 -66.558555178276762 141.49200976561548 -50.585597161373691 -66.558555178276734 141.49200976561545 -60.275093220099144 -2.5754676196728916e-06 1.6198736044395312e-06 1.7026023585615812e-06 0.0000000000000000 1.6748728202953254e-09 -1.3402443044263634e-10 4.8531440643984070e-07 0.00020955591501448459 2.4351136192713487e-12 -1.8867708001654823e-12 8.6108529390885677e-13 0.0000000000000000 -50.412828244765279 -66.590128188430739 142.20347059834828 136.07757377940416 0.0000000000000000 0.0000000000000000 0.0000000000000000 0.0000000000000000 3.0320332387783249 3.0642719684187800 1.0322390179954570 1.0162127736808564 228.03563781861160 228.03563792387067 1.0159913927495055 
-94.857673921234934 -158.88339968830340 76.151658031684818 -94.857673921234905 -158.88339968830340 76.151658031684832 -125.69896001723443 -3.9560153121719947e-06 -5.4872626154225233e-06 -7.7898097557835896e-06 -125.60078834954835 2.8884647416960174e-09 7.0738553903382229e-10 1.0062957263023975e-06 0.00029598515690582846 5.5012650650356560e-12 -3.5660178211652966e-12 9.7322207113866039e-12 0.00029682809985006865 -94.559718839999974 -158.71675115199997 77.626866652000004 109.98746742214213 0.0000000000000000 0.0000000000000000 0.0000000000000000 0.0000000000000000 3.0336944326087116 3.0676502706792403 1.0339564213815575 1.0168794568376278 348.22869344363596 348.23120492109831 1.0168364000368049 
-89.966263335035407 -158.63251508276920 81.020050667278596 -89.966263335035379 -158.63251508276923 81.020050667278596 -115.01457082145161 -1.3272212584659527e-05 -1.2526051176829005e-05 -1.5150566512693107e-05 -111.25287300738866 2.7543909895955121e-09 7.0510836058801384e-10 9.6747834543720046e-07 0.00028868003333323882 6.5660801358683926e-12 -3.1200258894958116e-12 1.4641566033722958e-11 0.00029221448930981034 -89.682139475999989 -158.46640519600001 82.438353807199988 112.88451412247700 0.0000000000000000 0.0000000000000000 0.0000000000000000 0.0000000000000000 3.0339350630348298 3.0681255981222004 1.0341910830951893 1.0168794568376291 329.11720841864428 329.07236383263114 1.0169516603408035 
-103.03093283438419 -155.10256973474708 85.240008966001142 -103.03093283438419 -155.10256973474711 85.240008966001184 -112.89104785006978 -2.6819449700686130e-06 -2.8322941593723862e-06 -1.8460279032430943e-05 0.0000000000000000 3.1125132436693459e-09 6.7293381977862065e-10 9.3383114130318745e-07 0.00029403385904587032 1.0278401099835160e-11 -4.8448976748228294e-12 9.3810946405306426e-12 0.0000000000000000 -102.70986659571734 -154.94403864466588 86.608986019839278 111.02505284862640 0.0000000000000000 0.0000000000000000 0.0000000000000000 0.0000000000000000 3.0340999154572805 3.0684686475237117 1.0343693280686173 1.0166046777661135 328.56964902537277 328.56341615665582 1.0170399874752505 
-100.72160092126857 -167.35875842006817 82.266339580776190 -100.72160092126855 -167.35875842006826 82.266339580776233 -121.49804986481566 -1.3444414141909239e-06 -3.6931147499383142e-06 -1.7587105023644410e-05 0.0000000000000000 3.0492149326322156e-09 7.8463380237536740e-10 9.5754124807001517e-07 0.00029043310721679972 7.0654267256438287e-12 1.3983444939810872e-12 6.3567500823576665e-12 0.0000000000000000 -100.40706467681501 -167.17391327890167 83.670075146830683 105.53983917324770 0.0000000000000000 0.0000000000000000 0.0000000000000000 0.0000000000000000 3.0337404635824194 3.0677430295932546 1.0340031470887181 1.0166565126733285 340.10706297373326 340.14383567613436 1.0168595302385333 
-114.97891325069264 -99.845746054620804 95.321122544004638 -114.97891325069260 -99.845746054620804 95.321122544004623 -88.393193075715715 -2.9705933477214007e-06 -3.9753510070998185e-06 -1.2908445062622875e-05 -89.917999103683400 3.4400376395077244e-09 1.6934084690056750e-10 8.5345092948330137e-07 0.00029738166998349993 5.3324105718232789e-12 8.9787185540151536e-12 2.7994928712298693e-11 0.00029821901380523800 -114.62406224400000 -99.805851428000011 96.572263865600007 85.211636250682801 0.0000000000000000 0.0000000000000000 0.0000000000000000 0.0000000000000000 3.0341127452471168 3.0684832582556565 1.0343708825722950 1.0159466263704526 284.53238534434519 284.53238511830517 1.0170395285485636 
-111.43238476324861 -91.118799836738148 99.013283985707062 -111.43238476324861 -91.118799836738148 99.013283985707048 -81.756520514925072 -1.2953928744006170e-06 -4.6642890750554155e-08 -1.4212347924407530e-05 -80.928346173134187 3.3428203503882430e-09 8.9808327441431844e-11 8.2401203460591432e-07 0.00028611687025406141 -3.5445125367394953e-13 -5.6279805900049722e-12 2.8590142286694173e-11 0.00028090730167374929 -111.08756211600000 -91.097641973600034 100.22126851279998 99.535403830130534 0.0000000000000000 0.0000000000000000 0.0000000000000000 0.0000000000000000 3.0355423660857772 3.0713750868360501 1.0358334430439269 1.0165299488784183 278.21110004781156 278.21108819033810 1.0177598945841204 
-113.25432251085320 -97.691073430038486 107.27540069822439 -113.25432251085319 -97.691073430038458 107.27540069822436 -72.270401813444252 -1.4512923170035537e-06 -9.9961498417605650e-07 -1.3313082540287198e-05 -72.184873884956787 3.3927599583927219e-09 1.4971041073508218e-10 7.5813531363877463e-07 0.00026514777644271018 6.6824106225574370e-12 1.5695980272501377e-11 2.8819301783943188e-11 0.00026389601449323740 -112.90434805199999 -97.655804887999992 108.38681131359999 128.09762094244454 0.0000000000000000 0.0000000000000000 0.0000000000000000 0.0000000000000000 3.0341212822839130 3.0685287661568021 1.0344081670468239 1.0165818051447524 257.43749365577690 257.43749687679974 1.0170583932417760 
-107.48833653876683 -103.88977847607586 99.346070343188075 -107.48833653876683 -103.88977847607580 99.346070343188032 -80.257024545358391 -1.3193078910844449e-05 -1.5498434088586501e-06 -1.5163311016737226e-05 0.0000000000000000 3.2347075538952108e-09 2.0619700391577564e-10 8.2135862156107475e-07 0.00029089862035468916 8.3863454364987741e-12 1.2465797138206400e-11 2.1159733851542418e-11 0.0000000000000000 -107.15466629968294 -103.84120130723400 100.55016500991876 102.24201981555134 0.0000000000000000 0.0000000000000000 0.0000000000000000 0.0000000000000000 3.0307781590925669 3.0616919832770422 1.0309138250417069 1.0152895175955963 257.33586499571805 257.33586175085128 1.0153381819253762 
-27.003878951424422 -115.43940395766377 102.18228859585446 -27.003878951424433 -115.43940395766370 102.18228859585450 -17.831278994568244 8.3641831315982884e-06 2.0646357068594537e-06 -1.1430686025709751e-05 0.0000000000000000 -8.6792860498272328e-11 2.6984454794661298e-08 9.2886793140641376e-07 0.00029923381501867661 -3.2845820890516106e-11 8.9425008957624406e-11 2.3000444830247727e-10 0.0000000000000000 -26.889884864405381 -115.37486796036181 103.37575244326078 96.382960025775517 0.0000000000000000 0.0000000000000000 0.0000000000000000 0.0000000000000000 3.0400769513443469 3.0805484141511852 1.0404724680342492 1.0199335943602661 180.32261532312984 180.32255512913588 1.0200353622746094 
-109.90884878092413 -103.66987840714302 151.60418790981529 -109.90884878092410 -103.66987840714297 151.60418790981527 -62.832337390172952 1.8639441976128603e-07 6.0982960386082825e-07 1.2671541326028650e-07 -63.151420545888421 3.3010505960662240e-09 2.0419563262485954e-10 4.0468649364910902e-07 0.00020673553776400083 1.3543116943363204e-13 6.8552647213847661e-13 -6.0483877214602400e-13 0.00020558844029790982 -109.56833416800004 -103.62177336400003 152.19744990400002 70.302883591683823 0.0000000000000000 0.0000000000000000 0.0000000000000000 0.0000000000000000 3.0330225519742631 3.0662802362223571 1.0332581495557973 1.0165323657354135 236.22574284202292 236.22624508722947 1.0164931782245232 