# For a description of the Tecplot format see the Tecplot User's guide.
#
Variables=x,y,z,s_u,s_v,s_w,s_p,mono_f_vel_u,mono_f_vel_v,mono_f_vel_w,const,u_nu,v_nu,w_nu,p_nu,x_nu,y_nu,z_nu,const,u_ref,v_ref,w_ref,vol_ref,x_ref,y_ref,z_ref,const,I1,I2,I3,J,p1,p2,p3
Zone f=fepoint, n=3174, e=16683, et=brick, c=black
nan nan nan nan nan nan nan nan nan nan nan nan nan nan nan nan nan nan nan -24.903554063199991 -154.16086777200002 112.24023381839994 89.724962256112903 0.0000000000000000 0.0000000000000000 0.0000000000000000 0.0000000000000000 -nan -nan -nan -nan -nan -nan -nan 
nan nan nan nan nan nan nan nan nan nan nan nan nan nan nan nan nan nan nan -37.438273663334591 -155.10473791080037 114.93291110338620 89.036758072416930 0.0000000000000000 0.0000000000000000 0.0000000000000000 0.0000000000000000 -nan -nan -nan -nan -nan -nan -nan 
nan nan nan nan nan nan nan nan nan nan nan nan nan nan nan nan nan nan nan -31.542619574254449 -147.87907313389167 119.86135157363466 98.260374494724786 0.0000000000000000 0.0000000000000000 0.0000000000000000 0.0000000000000000 -nan -nan -nan -nan -nan -nan -nan 
nan nan nan nan nan nan nan nan nan nan nan nan nan nan nan nan nan nan nan -28.647655777685479 -142.96738158566356 112.12452093910819 112.69127588814607 0.0000000000000000 0.0000000000000000 0.0000000000000000 0.0000000000000000 -nan -nan -nan -nan -nan -nan -nan 
-nan -nan -nan -nan -nan -nan nan -nan -nan -nan -nan -nan -nan -nan nan -nan -nan -nan -nan -24.261860196399997 -200.43215969199997 73.726546483199982 142.71380061529433 0.0000000000000000 0.0000000000000000 0.0000000000000000 0.0000000000000000 nan nan nan nan nan nan nan 
-nan -nan -nan -nan -nan -nan nan -nan -nan -nan -nan -nan -nan -nan nan -nan -nan -nan -nan -24.157397762799999 -187.63907770800003 75.309882232799993 165.73632395326644 0.0000000000000000 0.0000000000000000 0.0000000000000000 0.0000000000000000 -nan -nan -nan nan -nan -nan -nan 
nan nan nan nan nan nan nan nan nan nan nan nan nan nan nan nan nan nan nan -34.885542273181727 -195.41132893576267 81.596679120775832 139.46796289390394 0.0000000000000000 0.0000000000000000 0.0000000000000000 0.0000000000000000 nan nan nan nan nan nan nan 
-nan -nan -nan -nan -nan -nan nan -nan -nan -nan -nan -nan -nan -nan nan -nan -nan -nan -nan -18.822600960987238 -194.52970000168264 81.412954998504986 111.95285379220412 0.0000000000000000 0.0000000000000000 0.0000000000000000 0.0000000000000000 -nan -nan -nan nan -nan -nan -nan 
nan nan nan nan nan nan nan nan nan nan nan nan nan nan nan nan nan nan nan -22.663982073999996 -103.20790935200000 43.238681550399988 69.202643319072678 0.0000000000000000 0.0000000000000000 0.0000000000000000 0.0000000000000000 -nan -nan -nan -nan -nan -nan -nan 
nan nan nan nan nan nan nan nan nan nan nan nan nan nan nan nan nan nan nan -30.151660686400003 -110.77310694400001 46.988755992800002 74.715282964229786 0.0000000000000000 0.0000000000000000 0.0000000000000000 0.0000000000000000 nan nan nan -nan nan nan nan 
nan nan nan nan nan nan nan nan nan nan nan nan nan nan nan nan nan nan nan -18.735150314000002 -103.56704831999998 50.008419303199993 79.719497061372692 0.0000000000000000 0.0000000000000000 0.0000000000000000 0.0000000000000000 -nan -nan -nan -nan -nan -nan -nan 
nan nan nan nan nan nan nan nan nan nan nan nan nan nan nan nan nan nan nan -25.491879232152165 -98.487589184379729 50.982237960580505 72.292163684038698 0.0000000000000000 0.0000000000000000 0.0000000000000000 0.0000000000000000 nan nan nan -nan nan nan nan 
nan nan nan nan nan nan nan nan nan nan nan nan nan nan nan nan nan nan nan -25.283559732051039 -104.23282252886388 108.75695162467670 96.378087069502698 0.0000000000000000 0.0000000000000000 0.0000000000000000 0.0000000000000000 -nan -nan -nan -nan -nan -nan -nan 
nan nan nan nan nan nan nan nan nan nan nan nan nan nan nan nan nan nan nan -25.913646985361510 -118.01095136745833 110.66456878241424 88.846747377876298 0.0000000000000000 0.0000000000000000 0.0000000000000000 0.0000000000000000 -nan -nan -nan -nan -nan -nan -nan 
nan nan nan nan nan nan nan nan nan nan nan nan nan nan nan nan nan nan nan -36.236867317722961 -112.72601430119678 112.03758904139967 95.996160021407249 0.0000000000000000 0.0000000000000000 0.0000000000000000 0.0000000000000000 -nan -nan -nan -nan -nan -nan -nan 
nan nan nan nan nan nan nan nan nan nan nan nan nan nan nan nan nan nan nan -33.380789828628046 -105.09637623893835 105.63342596379557 85.433794965156210 0.0000000000000000 0.0000000000000000 0.0000000000000000 0.0000000000000000 -nan -nan -nan -nan -nan -nan -nan 
nan nan nan nan nan nan nan nan nan nan nan nan nan nan nan nan nan nan nan -112.21942232800005 -160.66347960400000 124.66427103520003 147.55923210393107 0.0000000000000000 0.0000000000000000 0.0000000000000000 0.0000000000000000 -nan -nan -nan nan -nan -nan -nan 
nan nan nan nan nan nan nan nan nan nan nan nan nan nan nan nan nan nan nan -99.532617471171264 -158.09468895943013 116.58484116745363 117.70414803503969 0.0000000000000000 0.0000000000000000 0.0000000000000000 0.0000000000000000 nan nan nan nan nan nan nan 
nan nan nan nan nan nan nan nan nan nan nan nan nan nan nan nan nan nan nan -104.34256255272837 -148.85497981259945 120.89176065121424 119.29379793442074 0.0000000000000000 0.0000000000000000 0.0000000000000000 0.0000000000000000 nan nan nan nan nan nan nan 
nan nan nan nan nan nan nan nan nan nan nan nan nan nan nan nan nan nan nan -100.53040969477119 -162.28305471776312 124.56781543385799 141.51484144144280 0.0000000000000000 0.0000000000000000 0.0000000000000000 0.0000000000000000 -nan -nan -nan nan -nan -nan -nan 
-nan -nan -nan -nan -nan -nan nan -nan -nan -nan -nan -nan -nan -nan nan -nan -nan -nan -nan -78.400527573600002 -148.79743798799998 89.448228916799977 108.06316173413846 0.0000000000000000 0.0000000000000000 0.0000000000000000 0.0000000000000000 -nan -nan -nan -nan -nan -nan -nan 
-nan -nan -nan -nan -nan -nan nan -nan -nan -nan -nan -nan -nan -nan nan -nan -nan -nan -nan -80.149363288800018 -162.53464431600008 87.773009718400019 109.57810873427631 0.0000000000000000 0.0000000000000000 0.0000000000000000 0.0000000000000000 nan nan nan -nan nan nan nan 
nan nan nan nan nan nan nan nan nan nan nan nan nan nan nan nan nan nan nan -84.295478612813938 -160.18443337667750 94.973195224810283 106.11323630727971 0.0000000000000000 0.0000000000000000 0.0000000000000000 0.0000000000000000 -nan -nan -nan -nan -nan -nan -nan 
-nan -nan -nan -nan -nan -nan nan -nan -nan -nan -nan -nan -nan -nan nan -nan -nan -nan -nan -86.474010682800568 -151.39014911596544 92.634484883397832 94.367740677547317 0.0000000000000000 0.0000000000000000 0.0000000000000000 0.0000000000000000 -nan -nan -nan -nan -nan -nan -nan 
nan nan nan nan nan nan nan nan nan nan nan nan nan nan nan nan nan nan nan -26.018656529999991 -132.43089511199997 138.64462455200004 49.421240865332216 0.0000000000000000 0.0000000000000000 0.0000000000000000 0.0000000000000000 -nan -nan -nan -nan -nan -nan -nan 
nan nan nan nan nan nan nan nan nan nan nan nan nan nan nan nan nan nan nan -32.495446914399992 -133.95681332000001 137.60295016000006 48.530522504776933 0.0000000000000000 0.0000000000000000 0.0000000000000000 0.0000000000000000 -nan -nan -nan -nan -nan -nan -nan 
nan nan nan nan nan nan nan nan nan nan nan nan nan nan nan nan nan nan nan -28.418203856399998 -136.43877710800004 140.31002455199999 44.353383947079159 0.0000000000000000 0.0000000000000000 0.0000000000000000 0.0000000000000000 nan nan nan -nan nan nan nan 
nan nan nan nan nan nan nan nan nan nan nan nan nan nan nan nan nan nan nan -26.768365491316434 -129.50173712462359 143.84833436668455 49.139845408488213 0.0000000000000000 0.0000000000000000 0.0000000000000000 0.0000000000000000 nan nan nan -nan nan nan nan 
nan nan nan nan nan nan nan nan nan nan nan nan nan nan nan nan nan nan nan -40.068761925200000 -65.476070995999990 153.95338104800004 156.95717166164070 0.0000000000000000 0.0000000000000000 0.0000000000000000 0.0000000000000000 nan nan nan -nan nan nan nan 
nan nan nan nan nan nan nan nan nan nan nan nan nan nan nan nan nan nan nan -52.426757905599978 -59.655776269200025 149.26381449600007 118.05125250056595 0.0000000000000000 0.0000000000000000 0.0000000000000000 0.0000000000000000 nan nan nan -nan nan nan nan 
nan nan nan nan nan nan nan nan nan nan nan nan nan nan nan nan nan nan nan -35.172917262399999 -66.029770167599992 144.99959110400002 155.12084301790807 0.0000000000000000 0.0000000000000000 0.0000000000000000 0.0000000000000000 -nan -nan -nan -nan -nan -nan -nan 
-nan -nan -nan -nan -nan -nan nan -nan -nan -nan -nan -nan -nan -nan nan -nan -nan -nan -nan -50.412828244765279 -66.590128188430739 142.20347059834828 136.07757377940416 0.0000000000000000 0.0000000000000000 0.0000000000000000 0.0000000000000000 nan nan nan -nan nan nan nan 
nan nan nan nan nan nan nan nan nan nan nan nan nan nan nan nan nan nan nan -94.559718839999974 -158.71675115199997 77.626866652000004 109.98746742214213 0.0000000000000000 0.0000000000000000 0.0000000000000000 0.0000000000000000 nan nan nan -nan nan nan nan 
nan nan nan nan nan nan nan nan nan nan nan nan nan nan nan nan nan nan nan -89.682139475999989 -158.46640519600001 82.438353807199988 112.88451412247700 0.0000000000000000 0.0000000000000000 0.0000000000000000 0.0000000000000000 -nan -nan -nan -nan -nan -nan -nan 
-nan -nan -nan -nan -nan -nan nan -nan -nan -nan -nan -nan -nan -nan nan -nan -nan -nan -nan -102.70986659571734 -154.94403864466588 86.608986019839278 111.02505284862640 0.0000000000000000 0.0000000000000000 0.0000000000000000 0.0000000000000000 -nan -nan -nan -nan -nan -nan -nan 
-nan -nan -nan -nan -nan -nan nan -nan -nan -nan -nan -nan -nan -nan nan -nan -nan -nan -nan -100.40706467681501 -167.17391327890167 83.670075146830683 105.53983917324770 0.0000000000000000 0.0000000000000000 0.0000000000000000 0.0000000000000000 -nan -nan -nan -nan -nan -nan -nan 
nan nan nan nan nan nan nan nan nan nan nan nan nan nan nan nan nan nan nan -114.62406224400000 -99.805851428000011 96.572263865600007 85.211636250682801 0.0000000000000000 0.0000000000000000 0.0000000000000000 0.0000000000000000 -nan -nan -nan -nan -nan -nan -nan 
nan -nan -nan nan -nan -nan nan -nan -nan -nan -nan nan -nan -nan nan -nan -nan -nan -nan -111.08756211600000 -91.097641973600034 100.22126851279998 99.535403830130534 0.0000000000000000 0.0000000000000000 0.0000000000000000 0.0000000000000000 -nan -nan -nan -nan -nan -nan -nan 
nan nan nan nan nan nan nan nan nan nan nan nan nan nan nan nan nan nan nan -112.90434805199999 -97.655804887999992 108.38681131359999 128.09762094244454 0.0000000000000000 0.0000000000000000 0.0000000000000000 0.0000000000000000 -nan -nan -nan -nan -nan -nan -nan 
nan nan nan nan nan nan nan nan nan nan nan nan nan nan nan nan nan nan nan -107.15466629968294 -103.84120130723400 100.55016500991876 102.24201981555134 0.0000000000000000 0.0000000000000000 0.0000000000000000 0.0000000000000000 -nan -nan -nan -nan -nan -nan -nan 
nan nan nan nan nan nan nan nan nan nan nan nan nan nan nan nan nan nan nan -26.889884864405381 -115.37486796036181 103.37575244326078 96.382960025775517 0.0000000000000000 0.0000000000000000 0.0000000000000000 0.0000000000000000 -nan -nan -nan nan -nan -nan -nan 
-nan -nan -nan -nan -nan -nan nan -nan -nan -nan -nan -nan -nan -nan nan -nan -nan -nan -nan -109.56833416800004 -103.62177336400003 152.19744990400002 70.302883591683823 0.0000000000000000 0.0000000000000000 0.0000000000000000 0.0000000000000000 -nan -nan -nan nan -nan -nan -nan 
-nan -nan -nan -nan -nan -nan nan -nan -nan -nan -nan -nan -nan -nan nan -nan -nan -nan -nan -100.42221772709267 -110.73281706597967 149.98676758015696 79.738989072859482 0.0000000000000000 0.0000000000000000 0.0000000000000000 0.0000000000000000 -nan -nan -nan nan -nan -nan -nan 
nan nan nan nan nan nan nan nan nan nan nan nan nan nan nan nan nan nan nan -108.86649442799997 -106.90386798400003 159.17560913600002 105.95205128898809 0.0000000000000000 0.0000000000000000 0.0000000000000000 0.0000000000000000 nan nan nan nan nan nan nan 
nan nan nan nan nan nan nan nan nan nan nan nan nan nan nan nan nan nan nan -102.77551626185580 -116.59342058834683 155.03891610220259 92.588896382933882 0.0000000000000000 0.0000000000000000 0.0000000000000000 0.0000000000000000 nan nan nan nan nan nan nan 
-nan -nan -nan -nan -nan -nan nan -nan -nan -nan -nan -nan -nan -nan nan -nan -nan -nan -nan -65.621465181069922 -168.54808480387365 137.73712252878261 73.030674803269207 0.0000000000000000 0.0000000000000000 0.0000000000000000 0.0000000000000000 nan nan nan -nan nan nan nan 
nan nan nan nan nan nan nan nan nan nan nan nan nan nan nan nan nan nan nan -64.671713334003911 -160.70847832606762 130.76735872100608 67.574408751949193 0.0000000000000000 0.0000000000000000 0.0000000000000000 0.0000000000000000 nan nan nan -nan nan nan nan 
nan nan nan nan nan nan nan nan nan nan nan nan nan nan nan nan nan nan nan -58.098649897709485 -169.50949877133198 134.84044568923386 84.637452167544595 0.0000000000000000 0.0000000000000000 0.0000000000000000 0.0000000000000000 -nan -nan -nan -nan -nan -nan -nan 
nan nan nan nan nan nan nan nan nan nan nan nan nan nan nan nan nan nan nan -68.893285281641681 -166.27813666958809 128.02556792086276 67.931727612979955 0.0000000000000000 0.0000000000000000 0.0000000000000000 0.0000000000000000 nan nan nan -nan nan nan nan 
nan nan nan nan nan nan nan nan nan nan nan nan nan nan nan nan nan nan nan -57.249500367338264 -181.56865258546139 110.26202285676311 88.613464218370268 0.0000000000000000 0.0000000000000000 0.0000000000000000 0.0000000000000000 nan nan nan nan nan nan nan 
nan nan nan nan nan nan nan nan nan nan nan nan nan nan nan nan nan nan nan -58.355082294454917 -182.77105589342491 120.21053974269718 87.931314982538410 0.0000000000000000 0.0000000000000000 0.0000000000000000 0.0000000000000000 nan nan nan nan nan nan nan 
nan nan nan nan nan nan nan nan nan nan nan nan nan nan nan nan nan nan nan -66.274513471365950 -177.40432907383013 118.20541921829908 97.267477482748532 0.0000000000000000 0.0000000000000000 0.0000000000000000 0.0000000000000000 nan nan nan nan nan nan nan 
nan nan nan nan nan nan nan nan nan nan nan nan nan nan nan nan nan nan nan -65.285441098131571 -186.76798193904676 112.38562348393499 93.207511023434918 0.0000000000000000 0.0000000000000000 0.0000000000000000 0.0000000000000000 -nan -nan -nan nan -nan -nan -nan 
-nan -nan -nan -nan -nan -nan -nan -nan -nan -nan -nan -nan -nan -nan -nan -nan -nan -nan -nan -84.835000461805052 -132.20070247569052 96.302282107518110 111.15842425225152 0.0000000000000000 0.0000000000000000 0.0000000000000000 0.0000000000000000 -nan -nan -nan -nan -nan -nan -nan 
-nan -nan -nan -nan -nan -nan -nan -nan -nan -nan -nan -nan -nan -nan -nan -nan -nan -nan -nan -85.108773397600018 -140.91975382400003 86.871915071199979 130.07949628023997 0.0000000000000000 0.0000000000000000 0.0000000000000000 0.0000000000000000 nan nan nan -nan nan nan nan 
-nan -nan -nan -nan -nan -nan -nan -nan -nan -nan -nan -nan -nan -nan -nan -nan -nan -nan -nan -79.007170837905903 -141.89203466529850 95.861111135125554 106.86677844515887 0.0000000000000000 0.0000000000000000 0.0000000000000000 0.0000000000000000 -nan -nan -nan -nan -nan -nan -nan 
-nan -nan -nan -nan -nan -nan -nan -nan -nan -nan -nan -nan -nan -nan -nan -nan -nan -nan -nan -94.145274041025573 -145.81111409140547 92.058353095775161 123.54253962116113 0.0000000000000000 0.0000000000000000 0.0000000000000000 0.0000000000000000 nan nan nan -nan nan nan nan 
nan nan nan nan nan nan nan nan nan nan nan nan nan nan nan nan nan nan nan -55.940370827555547 -94.601855361436776 100.75012639496677 99.469513332121068 0.0000000000000000 0.0000000000000000 0.0000000000000000 0.0000000000000000 -nan -nan -nan -nan -nan -nan -nan 
nan nan nan nan nan nan nan nan nan nan nan nan nan nan nan nan nan nan nan -50.976924286319139 -108.61261853066027 103.50677107803087 87.531108978717256 0.0000000000000000 0.0000000000000000 0.0000000000000000 0.0000000000000000 nan nan nan -nan nan nan nan 
nan nan nan nan nan nan nan nan nan nan nan nan nan nan nan nan nan nan nan -53.577418553364794 -108.07634996106569 95.320096199122403 94.404254224646778 0.0000000000000000 0.0000000000000000 0.0000000000000000 0.0000000000000000 -nan -nan -nan -nan -nan -nan -nan 
nan nan nan nan nan nan nan nan nan nan nan nan nan nan nan nan nan nan nan -45.171969718239318 -106.03212499632993 98.726423915919881 81.049517811629229 0.0000000000000000 0.0000000000000000 0.0000000000000000 0.0000000000000000 -nan -nan -nan -nan -nan -nan -nan 
nan nan nan nan nan nan nan nan nan nan nan nan nan nan nan nan nan nan nan -38.808750219561638 -111.01753349700934 95.381028699644645 100.96573615883020 0.0000000000000000 0.0000000000000000 0.0000000000000000 0.0000000000000000 nan nan nan -nan nan nan nan 
nan nan nan nan nan nan nan nan nan nan nan nan nan nan nan nan nan nan nan -47.325297967568908 -119.96069563481709 94.425715351687799 102.01139938235116 0.0000000000000000 0.0000000000000000 0.0000000000000000 0.0000000000000000 nan nan nan -nan nan nan nan 
-nan -nan -nan -nan -nan -nan nan -nan -nan -nan -nan -nan -nan -nan nan -nan -nan -nan -nan -47.627085487180821 -115.88355543990389 89.109173851797522 84.491313529850316 0.0000000000000000 0.0000000000000000 0.0000000000000000 0.0000000000000000 -nan -nan -nan -nan -nan -nan -nan 
-nan -nan -nan -nan -nan -nan nan -nan -nan -nan -nan -nan -nan -nan nan -nan -nan -nan -nan -79.047571417200032 -202.91872301200007 93.588080236800025 112.15369608224495 0.0000000000000000 0.0000000000000000 0.0000000000000000 0.0000000000000000 -nan -nan -nan nan -nan -nan -nan 
nan nan nan nan nan nan nan nan nan nan nan nan nan nan nan nan nan nan nan -80.724982184399991 -202.06386713599997 86.262238777600018 88.781177710967967 0.0000000000000000 0.0000000000000000 0.0000000000000000 0.0000000000000000 nan nan nan nan nan nan nan 
nan nan nan nan nan nan nan nan nan nan nan nan nan nan nan nan nan nan nan -87.407700713599993 -198.29337731199999 91.464562004799987 92.374674468319171 0.0000000000000000 0.0000000000000000 0.0000000000000000 0.0000000000000000 -nan -nan -nan nan -nan -nan -nan 
nan nan nan nan nan nan nan nan nan nan nan nan nan nan nan nan nan nan nan -75.436328361464049 -190.91960838778709 86.135801414806664 105.50836730690941 0.0000000000000000 0.0000000000000000 0.0000000000000000 0.0000000000000000 nan nan nan nan nan nan nan 
nan nan nan nan nan nan nan nan nan nan nan nan nan nan nan nan nan nan nan -48.638129013462574 -179.24838652136535 97.348436651021544 68.273891245402126 0.0000000000000000 0.0000000000000000 0.0000000000000000 0.0000000000000000 nan nan nan -nan nan nan nan 
nan nan nan nan nan nan nan nan nan nan nan nan nan nan nan nan nan nan nan -42.996633864637360 -182.68863791625427 104.42306199533547 72.606084368049125 0.0000000000000000 0.0000000000000000 0.0000000000000000 0.0000000000000000 nan nan nan -nan nan nan nan 
nan nan nan nan nan nan nan nan nan nan nan nan nan nan nan nan nan nan nan -53.561973634584099 -185.25196132801284 103.07999557055338 60.346232186318986 0.0000000000000000 0.0000000000000000 0.0000000000000000 0.0000000000000000 -nan -nan -nan -nan -nan -nan -nan 
nan nan nan nan nan nan nan nan nan nan nan nan nan nan nan nan nan nan nan -42.397135765614642 -188.35840883935276 97.806497935605293 82.667004455180546 0.0000000000000000 0.0000000000000000 0.0000000000000000 0.0000000000000000 nan nan nan -nan nan nan nan 
nan nan nan nan nan nan nan nan nan nan nan nan nan nan nan nan nan nan nan -67.698108680653320 -84.286659660075216 159.67484821876766 80.669890082074900 0.0000000000000000 0.0000000000000000 0.0000000000000000 0.0000000000000000 -nan -nan -nan -nan -nan -nan -nan 
nan nan nan nan nan nan nan nan nan nan nan nan nan nan nan nan nan nan nan -79.171114171619152 -79.690899022488324 156.35421626544942 70.674301299324100 0.0000000000000000 0.0000000000000000 0.0000000000000000 0.0000000000000000 -nan -nan -nan -nan -nan -nan -nan 
nan nan nan nan nan nan nan nan nan nan nan nan nan nan nan nan nan nan nan -74.254314664533183 -92.358509901461915 156.80435931198818 61.704593679189621 0.0000000000000000 0.0000000000000000 0.0000000000000000 0.0000000000000000 -nan -nan -nan -nan -nan -nan -nan 
nan nan nan nan nan nan nan nan nan nan nan nan nan nan nan nan nan nan nan -73.735506303879063 -89.051188753759547 163.01734247513875 74.003720020267522 0.0000000000000000 0.0000000000000000 0.0000000000000000 0.0000000000000000 -nan -nan -nan -nan -nan -nan -nan 
-nan -nan -nan -nan -nan -nan nan -nan -nan -nan -nan -nan -nan -nan nan -nan -nan -nan -nan -52.616652802105655 -190.40015185476378 96.014724461026915 60.208772830653672 0.0000000000000000 0.0000000000000000 0.0000000000000000 0.0000000000000000 nan nan nan nan nan nan nan 
-nan -nan -nan -nan -nan -nan nan -nan -nan -nan -nan -nan -nan -nan nan -nan -nan -nan -nan -54.034356290703734 -192.75513578211209 101.28985073595477 49.980138441681184 0.0000000000000000 0.0000000000000000 0.0000000000000000 0.0000000000000000 nan nan nan nan nan nan nan 
-nan -nan -nan -nan -nan -nan nan -nan -nan -nan -nan -nan -nan -nan nan -nan -nan -nan -nan -57.488660393934147 -155.50340434425388 164.83136099400906 104.95172066297037 0.0000000000000000 0.0000000000000000 0.0000000000000000 0.0000000000000000 -nan -nan -nan -nan -nan -nan -nan 
nan nan nan nan nan nan nan nan nan nan nan nan nan nan nan nan nan nan nan -57.973490633763575 -167.54729204444416 163.58900701919049 105.59319816509176 0.0000000000000000 0.0000000000000000 0.0000000000000000 0.0000000000000000 -nan -nan -nan -nan -nan -nan -nan 
-nan -nan -nan -nan -nan -nan nan -nan -nan -nan -nan -nan -nan -nan nan -nan -nan -nan -nan -67.834408863584699 -160.36634088391443 171.65274555251929 138.41870977461224 0.0000000000000000 0.0000000000000000 0.0000000000000000 0.0000000000000000 nan nan nan -nan nan nan nan 
-nan -nan -nan -nan -nan -nan nan -nan -nan -nan -nan -nan -nan -nan nan -nan -nan -nan -nan -69.711894657031522 -167.58306091746726 164.87510405516426 141.60486276018906 0.0000000000000000 0.0000000000000000 0.0000000000000000 0.0000000000000000 -nan -nan -nan -nan -nan -nan -nan 
nan nan nan nan nan nan -nan nan nan nan nan nan nan nan -nan nan nan nan nan -56.223761457199998 -63.875574661999984 160.76406765599998 138.90115383353731 0.0000000000000000 0.0000000000000000 0.0000000000000000 0.0000000000000000 -nan -nan -nan -nan -nan -nan -nan 
-nan -nan -nan -nan -nan -nan -nan -nan -nan -nan -nan -nan -nan -nan -nan -nan -nan -nan -nan -52.828335056292204 -79.270808387170945 157.66232204814779 129.95147599994368 0.0000000000000000 0.0000000000000000 0.0000000000000000 0.0000000000000000 nan nan nan -nan nan nan nan 
nan nan nan nan nan nan -nan nan nan nan nan nan nan nan -nan nan nan nan nan -62.009327604108130 -73.338784095675649 161.76842778427269 121.59180726013969 0.0000000000000000 0.0000000000000000 0.0000000000000000 0.0000000000000000 -nan -nan -nan -nan -nan -nan -nan 
nan nan nan nan nan nan -nan nan nan nan nan nan nan nan -nan nan nan nan nan -59.355153961352677 -66.078505910138560 152.88273084259785 96.736143607547277 0.0000000000000000 0.0000000000000000 0.0000000000000000 0.0000000000000000 nan nan nan -nan nan nan nan 
nan nan nan nan nan nan nan nan nan nan nan nan nan nan nan nan nan nan nan -67.995062817823737 -187.23455904870812 119.31907125149031 103.61243212312696 0.0000000000000000 0.0000000000000000 0.0000000000000000 0.0000000000000000 -nan -nan -nan nan -nan -nan -nan 
nan nan nan nan nan nan nan nan nan nan nan nan nan nan nan nan nan nan nan -68.572429810915295 -197.11840681329156 117.65172414986286 108.51882006682079 0.0000000000000000 0.0000000000000000 0.0000000000000000 0.0000000000000000 -nan -nan -nan nan -nan -nan -nan 
nan nan nan nan nan nan nan nan nan nan nan nan nan nan nan nan nan nan nan -80.550583143779420 -189.28373406571527 124.70854434355347 100.31216540494849 0.0000000000000000 0.0000000000000000 0.0000000000000000 0.0000000000000000 -nan -nan -nan nan -nan -nan -nan 
nan nan nan nan nan nan nan nan nan nan nan nan nan nan nan nan nan nan nan -79.293538260242201 -193.86884821408592 115.15922653054436 98.937955664847451 0.0000000000000000 0.0000000000000000 0.0000000000000000 0.0000000000000000 nan nan nan nan nan nan nan 
nan nan nan nan nan nan nan nan nan nan nan nan nan nan nan nan nan nan nan -74.296769125484786 -77.414992420615377 162.76703219853877 94.864324402973139 0.0000000000000000 0.0000000000000000 0.0000000000000000 0.0000000000000000 -nan -nan -nan nan -nan -nan -nan 
nan nan nan nan nan nan nan nan nan nan nan nan nan nan nan nan nan nan nan -70.991793292399990 -64.053510842800023 158.42864392799996 125.17618541959136 0.0000000000000000 0.0000000000000000 0.0000000000000000 0.0000000000000000 nan nan nan nan nan nan nan 
nan nan nan nan nan nan nan nan nan nan nan nan nan nan nan nan nan nan nan -73.802414094664130 -72.167269573068950 153.49757255871504 83.313569046811565 0.0000000000000000 0.0000000000000000 0.0000000000000000 0.0000000000000000 -nan -nan -nan nan -nan -nan -nan 
nan nan nan nan nan nan nan nan nan nan nan nan nan nan nan nan nan nan nan -33.853364637837529 -108.19597724077947 124.32213862603304 84.969892872020239 0.0000000000000000 0.0000000000000000 0.0000000000000000 0.0000000000000000 -nan nan nan nan -nan nan nan 
nan nan nan nan nan nan nan nan nan nan nan nan nan nan nan nan nan nan nan -25.356472620181911 -112.35915463509356 127.38845321640295 71.131409142647911 0.0000000000000000 0.0000000000000000 0.0000000000000000 0.0000000000000000 nan nan nan nan nan nan nan 
nan nan nan nan nan nan nan nan nan nan nan nan nan nan nan nan nan nan nan -36.539168259454947 -116.23365527001702 131.82646824174265 78.830307971865125 0.0000000000000000 0.0000000000000000 0.0000000000000000 0.0000000000000000 -nan -nan -nan nan -nan -nan -nan 
nan nan nan nan nan nan nan nan nan nan nan nan nan nan nan nan nan nan nan -30.373233549718602 -118.25780589731770 124.89350969752454 65.051101760665233 0.0000000000000000 0.0000000000000000 0.0000000000000000 0.0000000000000000 nan nan nan nan nan nan nan 
nan nan nan nan nan nan nan nan nan nan nan nan nan nan nan nan nan nan nan -42.175246347200009 -126.42784877599999 77.539339889600001 153.57770622377257 0.0000000000000000 0.0000000000000000 0.0000000000000000 0.0000000000000000 -nan -nan -nan -nan -nan -nan -nan 
-nan -nan -nan -nan -nan -nan nan -nan -nan -nan -nan -nan -nan -nan nan -nan -nan -nan -nan -44.257724681752890 -110.24609482447923 78.246582356122559 127.08510468115657 0.0000000000000000 0.0000000000000000 0.0000000000000000 0.0000000000000000 -nan -nan -nan -nan -nan -nan -nan 
nan nan nan nan nan nan nan nan nan nan nan nan nan nan nan nan nan nan nan -44.407676541646644 -122.88321953283504 86.546701555067969 124.23143273942613 0.0000000000000000 0.0000000000000000 0.0000000000000000 0.0000000000000000 -nan -nan -nan -nan -nan -nan -nan 
nan nan nan nan nan nan nan nan nan nan nan nan nan nan nan nan nan nan nan -34.799302681546344 -122.60547793025627 82.742052025894694 130.83421365517717 0.0000000000000000 0.0000000000000000 0.0000000000000000 0.0000000000000000 nan nan nan -nan nan nan nan 
nan nan nan nan nan nan nan nan nan nan nan nan nan nan nan nan nan nan nan -65.140573374803566 -79.504387458593996 97.490336215389576 122.01836218662280 0.0000000000000000 0.0000000000000000 0.0000000000000000 0.0000000000000000 -nan -nan -nan nan -nan -nan -nan 
nan nan nan nan nan nan nan nan nan nan nan nan nan nan nan nan nan nan nan -61.951813649975300 -67.262373743192995 104.32135637963846 104.16252933258421 0.0000000000000000 0.0000000000000000 0.0000000000000000 0.0000000000000000 nan nan nan nan nan nan nan 
nan nan nan nan nan nan nan nan nan nan nan nan nan nan nan nan nan nan nan -69.800559525301892 -73.020033115354849 102.11116399404915 113.29527888486608 0.0000000000000000 0.0000000000000000 0.0000000000000000 0.0000000000000000 -nan -nan -nan nan -nan -nan -nan 
nan nan nan nan nan nan nan nan nan nan nan nan nan nan nan nan nan nan nan -58.206576937814312 -75.981695609645598 108.08526575501840 117.23317145770092 0.0000000000000000 0.0000000000000000 0.0000000000000000 0.0000000000000000 -nan -nan -nan nan -nan -nan -nan 
nan nan nan nan nan nan nan nan nan nan nan nan nan nan nan nan nan nan nan -88.866444130625936 -100.75706739727315 141.23803409851413 73.354791462426718 0.0000000000000000 0.0000000000000000 0.0000000000000000 0.0000000000000000 -nan -nan -nan nan -nan -nan -nan 
nan nan nan nan nan nan nan nan nan nan nan nan nan nan nan nan nan nan nan -96.117843419518564 -105.89219431750494 142.72352991518844 78.784545296748746 0.0000000000000000 0.0000000000000000 0.0000000000000000 0.0000000000000000 nan nan nan nan nan nan nan 
-nan -nan -nan -nan -nan -nan nan -nan -nan -nan -nan -nan -nan -nan nan -nan -nan -nan -nan -96.335077714256855 -95.555788305016890 140.81026302189059 78.862225981023130 0.0000000000000000 0.0000000000000000 0.0000000000000000 0.0000000000000000 nan nan nan nan nan nan nan 
nan nan nan nan nan nan nan nan nan nan nan nan nan nan nan nan nan nan nan -95.418635637122676 -107.77649093776559 136.11770684213221 76.782300765400080 0.0000000000000000 0.0000000000000000 0.0000000000000000 0.0000000000000000 -nan -nan -nan nan -nan -nan -nan 
nan nan nan nan nan nan nan nan nan nan nan nan nan nan nan nan nan nan nan -100.11863404237194 -109.53028038228379 122.68682932112338 91.452852298811734 0.0000000000000000 0.0000000000000000 0.0000000000000000 0.0000000000000000 nan nan nan nan nan nan nan 