# For a description of the Tecplot format see the Tecplot User's guide.
#
Variables=x,y,z,s_u,s_v,s_w,s_p,mono_f_vel_u,mono_f_vel_v,mono_f_vel_w,const,u_nu,v_nu,w_nu,p_nu,x_nu,y_nu,z_nu,const,u_ref,v_ref,w_ref,vol_ref,x_ref,y_ref,z_ref,const,I1,I2,I3,J,p1,p2,p3
Zone f=fepoint, n=3174, e=16683, et=brick, c=black
-25.5031 -155.094 105.581 -25.503062719694871 -155.09395686784234 105.58131892305734 -330.48161786674041 -3.4879060419041755e-05 -0.00013506145834126182 -0.00014232003148264205 -313.71696993770132 1.7597034940308731e-14 -4.2188474935755941e-15 3.6720688711966423e-09 0.025905084065151282 -1.8330551332514593e-10 -9.5005459544559159e-10 3.1498785976872945e-10 0.025709580761076045 -24.903554063199991 -154.16086777200002 112.24023381839994 89.724962256112903 0.0000000000000000 0.0000000000000000 0.0000000000000000 0.0000000000000000 3.2221551663093853 3.4524672323840502 1.2302237679119219 1.1115684309044462 999.50009361727689 999.52914461255409 1.1090274285599864 
-38.305837340416687 -156.49400832767094 108.31433707658967 -38.305837340416694 -156.49400832767100 108.31433707658969 -270.24031919507479 0.00011053877953489135 -0.00010676361389560511 -7.0617521785777392e-05 0.0000000000000000 1.4137196939612705e-07 -1.0000396522578709e-06 2.1626179475716111e-06 0.026713151299590749 2.1883118442043367e-09 -1.9721305755730034e-09 1.4628293914254501e-09 0.0000000000000000 -37.438273663334591 -155.10473791080037 114.93291110338620 89.036758072416930 0.0000000000000000 0.0000000000000000 0.0000000000000000 0.0000000000000000 3.2965327372796578 3.6168940441274775 1.3208213903851937 1.1412155036890328 1038.7779717195192 1038.7505662343610 1.1494178328292401 
-32.254506522409010 -148.73175425934670 113.76556380104563 -32.254506522408995 -148.73175425934676 113.76556380104559 -229.11599282513239 3.3351222959540621e-05 -7.5187429480475228e-05 -2.9001916475625041e-05 0.0000000000000000 1.8540724511240114e-14 -2.2204460492503131e-16 3.3615350503168884e-09 0.026231805230904969 4.1241816326913429e-10 -6.9983211268101850e-11 -3.0983763831389010e-10 0.0000000000000000 -31.542619574254449 -147.87907313389167 119.86135157363466 98.260374494724786 0.0000000000000000 0.0000000000000000 0.0000000000000000 0.0000000000000000 3.2500804534634811 3.5152373918878079 1.2653066812078670 1.1277648250145409 905.43533610640930 905.49339568747632 1.1246879975617476 
-29.310540183941100 -143.75719227817490 105.45705597763707 -29.310540183941118 -143.75719227817490 105.45705597763707 -228.33642277752432 3.6274357248233781e-05 -0.00010122105480871085 -6.0706229387892346e-05 0.0000000000000000 1.6320278461989798e-14 1.6653345369377348e-14 3.6767939803894482e-09 0.026554556488363436 2.6816845236108875e-09 -4.0806998554078446e-11 7.0888661219216605e-10 0.0000000000000000 -28.647655777685479 -142.96738158566356 112.12452093910819 112.69127588814607 0.0000000000000000 0.0000000000000000 0.0000000000000000 0.0000000000000000 3.2616884590809052 3.5412750580752008 1.2799130982418379 1.1284003172042134 917.64003985361717 917.63016702957873 1.1313384582001651 
-24.850507013920787 -201.95752868313141 64.221841425278171 -24.850507013920783 -201.95752868313141 64.221841425278171 -1018.1748306405354 6.9660280574081093e-06 7.3336249757641000e-07 4.3850010794102500e-06 -1023.6348564835337 1.5931700403370996e-14 -7.1054273576010019e-15 5.2413895446079559e-09 0.025810513184827914 -3.9109033354610873e-11 -1.3118691350371536e-12 -1.0569208868626591e-11 0.025811811309560888 -24.261860196399997 -200.43215969199997 73.726546483199982 142.71380061529433 0.0000000000000000 0.0000000000000000 0.0000000000000000 0.0000000000000000 3.2134069611423040 3.4369140522692740 1.2236426703278978 1.1060465542005362 2206.4504562892821 2206.4504373432446 1.1061844015680578 
-24.744276363120484 -189.00069321520002 65.922170420968996 -24.744276363120488 -189.00069321520002 65.922170420968996 -1000.8100380258478 2.4149576618017662e-05 -3.2015698429397417e-05 -1.0184904851273744e-05 -1007.3612681830925 1.4266365866433262e-14 1.4654943925052066e-14 5.1768740405577773e-09 0.025805237940693705 -2.4940363852293424e-11 -4.1725199902393819e-12 -7.0970237859420002e-12 0.025799888332099223 -24.157397762799999 -187.63907770800003 75.309882232799993 165.73632395326644 0.0000000000000000 0.0000000000000000 0.0000000000000000 0.0000000000000000 3.2134535072504287 3.4369378585366590 1.2236172392850464 1.1060465542005355 2177.4618811807600 2177.4631024174610 1.1061697022215145 
-35.654014284615180 -196.87243049473091 72.673500984524253 -35.654014284615180 -196.87243049473091 72.673500984524253 -990.45757277940118 1.1430110077460795e-05 -2.5080249182807743e-05 -4.8844367919081203e-05 0.0000000000000000 1.8762769116165149e-14 2.2204460492503131e-15 4.9207038443910278e-09 0.025791227555517566 -6.3447560293296595e-11 7.2745320023059864e-11 -1.6179553703861052e-10 0.0000000000000000 -34.885542273181727 -195.41132893576267 81.596679120775832 139.46796289390394 0.0000000000000000 0.0000000000000000 0.0000000000000000 0.0000000000000000 3.2114690546613538 3.4329241839850377 1.2215908898988745 1.1040943641628371 2155.8911813301961 2155.8915747939113 1.1052539092974802 
-19.319178396190281 -195.97951657008574 72.476201421002074 -19.319178396190292 -195.97951657008585 72.476201421002074 -1009.9672761973384 1.2330293258022148e-05 -1.6174647913824451e-05 -2.2928191360338035e-05 0.0000000000000000 1.4654943925052066e-14 7.1054273576010019e-15 4.9281876357554211e-09 0.025832929017408877 7.1849006988571957e-12 1.6936899322019314e-12 -1.9520017747494444e-11 0.0000000000000000 -18.822600960987238 -194.52970000168264 81.412954998504986 111.95285379220412 0.0000000000000000 0.0000000000000000 0.0000000000000000 0.0000000000000000 3.2138140204845440 3.4377112280985354 1.2240322604202307 1.1060465542005358 2202.3113792043364 2202.3089972051234 1.1063623733696071 
-23.225581890195571 -103.48879247680880 31.481217224099595 -23.225581890195571 -103.48879247680881 31.481217224099598 -968.63452531134919 -3.1258323758381064e-05 3.7410126011745258e-05 -5.1136383129788020e-05 -979.45782712721223 1.5820678100908484e-14 5.5511151231257835e-15 6.4836793711720020e-09 0.026567443897599474 1.3574036948751669e-10 -2.2008907592413029e-10 2.7932926108823423e-10 0.026601868279994452 -22.663982073999996 -103.20790935200000 43.238681550399988 69.202643319072678 0.0000000000000000 0.0000000000000000 0.0000000000000000 0.0000000000000000 3.2129851577274868 3.4360194613756372 1.2231689126706635 1.1060465542005360 2122.3095539957390 2098.6929173033009 1.1059715646050188 
-30.840003118639519 -111.15082580111076 35.508386011277331 -30.840003118639519 -111.15082580111077 35.508386011277324 -941.55476347150682 2.0467651382974606e-06 5.8169810402696296e-05 -6.9252943373171702e-05 -933.72551289461978 1.9428902930940239e-14 -8.8817841970012523e-16 6.3308736031331136e-09 0.026426313320066466 6.1435286032959492e-11 -3.5163030141367493e-10 3.5468328256505600e-10 0.026374066532879051 -30.151660686400003 -110.77310694400001 46.988755992800002 74.715282964229786 0.0000000000000000 0.0000000000000000 0.0000000000000000 0.0000000000000000 3.2140245765231890 3.4381360380867414 1.2242462009144663 1.1060465542005358 2070.5773278072666 2082.4346383280249 1.1064617844909301 
-19.230247487516127 -103.85252848071454 38.751173326092861 -19.230247487516127 -103.85252848071453 38.751173326092854 -921.56343819351548 -3.8389508110477414e-05 3.0477465368653331e-05 -7.3334076192780248e-05 -923.63195222262414 1.3988810110276972e-14 -2.2204460492503128e-16 6.2078324702952159e-09 0.026325020276650513 2.0467285069172382e-10 -2.3436799461602783e-10 3.6376215200171226e-10 0.026313299456399968 -18.735150314000002 -103.56704831999998 50.008419303199993 79.719497061372692 0.0000000000000000 0.0000000000000000 0.0000000000000000 0.0000000000000000 3.2130757265068870 3.4361986322461244 1.2232573795802082 1.1060465542005369 2038.0736131230735 2030.0436900806501 1.1060097242414988 
-26.101346365079770 -98.708051460351129 39.796947793136312 -26.101346365079770 -98.708051460351129 39.796947793136297 -935.16183118974971 1.9089333928448070e-06 1.3482457460123209e-05 -0.00011341168958160306 0.0000000000000000 1.5099033134902129e-14 4.2188474935755949e-15 6.1681486585030143e-09 0.026468313214722292 9.4032176266762775e-11 -2.1322125134224804e-10 4.4325379484360459e-10 0.0000000000000000 -25.491879232152165 -98.487589184379729 50.982237960580505 72.292163684038698 0.0000000000000000 0.0000000000000000 0.0000000000000000 0.0000000000000000 3.2128940516760545 3.4358772615197353 1.2231191903357270 1.1060465542005367 2059.1255130657100 2043.7870543706954 1.1059445371703456 
-26.031268556023793 -104.41072599737922 101.79158500237855 -26.031268556023782 -104.41072599737923 101.79158500237858 -216.49039908405112 3.2739463736292347e-05 0.00010842000442121050 -1.0288065164637999e-05 0.0000000000000000 1.9145839525819679e-07 5.4398144930558402e-07 3.0157058239949781e-06 0.024862743171878428 -1.9722079851348240e-09 -3.9494052612735758e-10 6.5027144234378768e-09 0.0000000000000000 -25.283559732051039 -104.23282252886388 108.75695162467670 96.378087069502698 0.0000000000000000 0.0000000000000000 0.0000000000000000 0.0000000000000000 3.2526385112446126 3.5191203761111991 1.2664883859469214 1.1314732088180259 863.39178114557694 863.39178114448691 1.1252162773000185 
-26.696408183980740 -118.36684501385695 103.79398183783826 -26.696408183980761 -118.36684501385697 103.79398183783819 -150.05368469970571 4.3818775288397012e-05 3.1928508658126509e-06 -3.7002081204611790e-05 0.0000000000000000 -2.7279609127557747e-07 2.2445352069196019e-06 4.6616152515682836e-06 0.025305675600747903 -2.0364417498030832e-09 2.5487194656019458e-09 4.4504962368098867e-09 0.0000000000000000 -25.913646985361510 -118.01095136745833 110.66456878241424 88.846747377876298 0.0000000000000000 0.0000000000000000 0.0000000000000000 0.0000000000000000 3.3273879910923614 3.6811544223259598 1.3542570871359751 1.1533260996808052 885.90691504942868 885.90697573338184 1.1638940610234985 
-37.403515779494043 -112.74972309286818 105.31843005197867 -37.403515779494022 -112.74972309286827 105.31843005197868 -155.59309643106252 -3.8148017004400195e-05 5.2633433406909011e-05 3.1725254459397040e-05 0.0000000000000000 9.9575866007675963e-07 2.6049155571482081e-06 5.8844077627470440e-06 0.024289038706175343 1.3721347916818287e-09 3.8726712211816051e-10 -6.8015540557344064e-10 0.0000000000000000 -36.236867317722961 -112.72601430119678 112.03758904139967 95.996160021407249 0.0000000000000000 0.0000000000000000 0.0000000000000000 0.0000000000000000 3.3347016708734150 3.6975284336804313 1.3634389805240730 1.1614407086404812 911.33376800346457 911.33379509593306 1.1676868613103124 
-34.368583473204993 -105.02135168399606 98.266923411887348 -34.368583473205007 -105.02135168399613 98.266923411887390 -211.01025970940194 1.1153755372654348e-06 0.00012257527442434372 -1.3567952529576061e-05 0.0000000000000000 2.0702142009330412e-07 8.6683973600833040e-07 5.0672621615891360e-06 0.025323347048624472 -1.9275871316425931e-09 -7.6260459503131171e-10 3.7094923129248171e-09 0.0000000000000000 -33.380789828628046 -105.09637623893835 105.63342596379557 85.433794965156210 0.0000000000000000 0.0000000000000000 0.0000000000000000 0.0000000000000000 3.3057808318632445 3.6322089202887033 1.3266477043001428 1.1451689840657193 919.07078602543686 919.07078121695383 1.1517744922249029 
-114.29691129573615 -161.67980316542898 118.92337270325129 -114.29691129573619 -161.67980316542895 118.92337270325129 -576.96383216145978 6.1978065390848230e-06 -1.9410838655384866e-05 -4.5512110301664436e-05 -574.75094431038724 5.2513549064769911e-14 8.4376949871511897e-15 3.1658391463906810e-09 0.024958312119806116 -2.3089384357088672e-11 6.6105904121739265e-11 2.9877763451336172e-10 0.024929648329381826 -112.21942232800005 -160.66347960400000 124.66427103520003 147.55923210393107 0.0000000000000000 0.0000000000000000 0.0000000000000000 0.0000000000000000 3.2282558590374397 3.4699143554825151 1.2418819301425110 1.1060465542005362 1467.7493100101876 1467.7494379700236 1.1145830555372782 
-101.39535912935661 -159.07813159208334 110.24695086647399 -101.39535912935661 -159.07813159208339 110.24695086647399 -598.37044602959907 -4.2113398408112058e-05 -3.2974227400954383e-05 -8.4943417353484607e-05 0.0000000000000000 5.2735593669694936e-14 1.6431300764452317e-14 3.4950371485820146e-09 0.025209021140818921 -8.6571783722553296e-11 -1.1628312592568512e-10 1.8191955615108199e-10 0.0000000000000000 -99.532617471171264 -158.09468895943013 116.58484116745363 117.70414803503969 0.0000000000000000 0.0000000000000000 0.0000000000000000 0.0000000000000000 3.1784599949927164 3.3546662374485687 1.1759073480125009 1.0881775404085094 1401.2683277717474 1401.2668945776436 1.0842305741248273 
-106.28672130347623 -149.72015269874436 114.87211017472181 -106.28672130347620 -149.72015269874430 114.87211017472188 -556.69582421070834 -3.5079473536520008e-05 -3.7665848308742255e-05 -3.8343176772191532e-05 0.0000000000000000 5.3845816694320086e-14 -3.5527136788005005e-15 3.3195508564176630e-09 0.025026114263775205 -2.3768992557215614e-10 1.4021723562696188e-10 2.7321005331546412e-10 0.0000000000000000 -104.34256255272837 -148.85497981259945 120.89176065121424 119.29379793442074 0.0000000000000000 0.0000000000000000 0.0000000000000000 0.0000000000000000 3.1788171667016041 3.3597267953063530 1.1808651306850990 1.0898106748699374 1333.4285918057576 1333.4292737994288 1.0864725376498034 
-102.41004080604800 -163.32010909821597 118.81978996295130 -102.41004080604804 -163.32010909821597 118.81978996295130 -569.78485380672623 -2.2349310271043662e-05 -4.9867288969442506e-05 -4.1552547338053473e-05 0.0000000000000000 5.5622173533720349e-14 -8.8817841970012513e-16 3.1697631186489157e-09 0.025025022033151829 -1.6846825595550088e-10 4.9912055641981900e-11 2.9891153860247519e-10 0.0000000000000000 -100.53040969477119 -162.28305471776312 124.56781543385799 141.51484144144280 0.0000000000000000 0.0000000000000000 0.0000000000000000 0.0000000000000000 3.1825037049080716 3.3698101928568081 1.1872937661363754 1.0910670457644847 1363.9907576509797 1363.9911759499380 1.0894949524901447 
-79.905570070972246 -149.66187432963901 81.105204609395201 -79.905570070972232 -149.66187432963901 81.105204609395187 -624.63476496166959 -0.00010194961648947824 -7.4148007819270861e-05 -3.5875979636474152e-05 -626.09677923502647 4.1189274213593308e-14 9.9920072216264089e-15 4.6007819776150419e-09 0.025821937381595748 -2.3826415001348795e-10 5.0824164383682594e-11 -5.0087384466964511e-11 0.025946905709743447 -78.400527573600002 -148.79743798799998 89.448228916799977 108.06316173413846 0.0000000000000000 0.0000000000000000 0.0000000000000000 0.0000000000000000 3.2278656989106955 3.4673080571324699 1.2396363259580576 1.1060465542005360 1553.2879970637343 1553.2786425843603 1.1135509979397218 
-81.684008020061995 -163.57491908332159 79.306202863936591 -81.684008020062009 -163.57491908332162 79.306202863936591 -784.38872623076384 -5.7949723178551294e-05 -0.00012246464480682526 -6.6607456652483738e-05 -790.35577111226678 4.3187675657918589e-14 7.5495165674510645e-15 4.6690367128121579e-09 0.025736007492635975 -1.8525676357370687e-10 -1.1057857661630841e-11 -9.4766638751771827e-11 0.025753123965748966 -80.149363288800018 -162.53464431600008 87.773009718400019 109.57810873427631 0.0000000000000000 0.0000000000000000 0.0000000000000000 0.0000000000000000 3.2297274181265077 3.4703922743960280 1.2408143509193612 1.1060465542005355 1834.1279061249379 1834.1778455549108 1.1141274915902044 
-85.900303907343627 -161.19462507021200 87.038412658350040 -85.900303907343627 -161.19462507021208 87.038412658350040 -710.82972132647978 -4.0310996299971273e-05 -8.3400127462995421e-05 -0.00012231093869064476 0.0000000000000000 4.6740389336719090e-14 -7.1054273576010019e-15 4.3756500645031338e-09 0.025740357363571609 1.4631390022367771e-11 -8.2574706238376180e-11 9.2050299271468107e-11 0.0000000000000000 -84.295478612813938 -160.18443337667750 94.973195224810283 106.11323630727971 0.0000000000000000 0.0000000000000000 0.0000000000000000 0.0000000000000000 3.1736191003601317 3.3547710414453218 1.1812207663016738 1.0899676948456036 1587.1799055507706 1587.2116814429467 1.0865408752442169 
-88.115711605676310 -152.28777257237192 84.526894171490852 -88.115711605676310 -152.28777257237195 84.526894171490824 -680.52156905700906 -4.7124272778947079e-05 -0.00010859352391428898 -0.00011657979094765592 0.0000000000000000 4.3631764867768652e-14 5.3290705182007522e-15 4.4709498325801178e-09 0.025816094334998194 8.1131818728926559e-11 -2.1987157872728954e-10 4.1891848165308863e-11 0.0000000000000000 -86.474010682800568 -151.39014911596544 92.634484883397832 94.367740677547317 0.0000000000000000 0.0000000000000000 0.0000000000000000 0.0000000000000000 3.1935511722739043 3.3963265636410251 1.2029129770036315 1.0936629962777684 1567.3742677137568 1567.3721594704114 1.0967775259404344 
-26.637040329395003 -133.08583710198789 133.93673955271981 -26.637040329395003 -133.08583710198789 133.93673955271976 -319.78773966645122 3.2908243146901428e-05 -2.7986413453278737e-05 0.00012866118666514853 -340.36271738830970 1.4876988529977098e-14 1.5765166949677223e-14 2.5961703897792177e-09 0.024278530089295879 3.9987366922479802e-10 -6.4066648038003607e-11 -1.7342820331898040e-10 0.024088512838901711 -26.018656529999991 -132.43089511199997 138.64462455200004 49.421240865332216 0.0000000000000000 0.0000000000000000 0.0000000000000000 0.0000000000000000 3.2108484083726387 3.4310994257910630 1.2203893313391032 1.1123496371265151 986.34857017483239 986.40978378802890 1.1048006803799773 
-33.223462202989488 -134.63128730572330 132.81809546650274 -33.223462202989488 -134.63128730572328 132.81809546650268 -301.63654280879854 -2.3192848648756886e-06 2.4004275770465009e-05 6.8561458375535428e-05 -237.12707214467983 1.7319479184152442e-14 1.9984014443252818e-15 2.6386270945977230e-09 0.024640810077760658 4.5549680672754470e-10 6.3684890789930900e-10 7.5130254687227663e-10 0.023890914599656261 -32.495446914399992 -133.95681332000001 137.60295016000006 48.530522504776933 0.0000000000000000 0.0000000000000000 0.0000000000000000 0.0000000000000000 3.2611332629487886 3.5393626067406392 1.2785128540111257 1.1300069862045310 1050.5842595865618 1050.6291840416527 1.1305721998397213 
-29.077204370428767 -137.14502062492656 135.72519655568894 -29.077204370428770 -137.14502062492653 135.72519655568891 -320.55765973542339 3.6574765146532009e-05 3.0330860790133701e-05 4.1042020497764033e-05 -338.29536638493488 1.6375789613221059e-14 1.2656542480726785e-14 2.5283259930120043e-09 0.024498522014864764 2.1904754834082927e-10 2.0131002617868823e-10 5.4183121003884150e-10 0.024444310108766670 -28.418203856399998 -136.43877710800004 140.31002455199999 44.353383947079159 0.0000000000000000 0.0000000000000000 0.0000000000000000 0.0000000000000000 3.2208929713345920 3.4517501669915371 1.2309665984388334 1.1171673036920300 1008.5018453768459 1007.6871443437650 1.1094573615733714 
-27.399439482150932 -130.11918542653711 139.52495335090157 -27.399439482150921 -130.11918542653711 139.52495335090151 -348.21514887504759 1.8748417260367765e-05 2.2631367090365379e-05 2.3048782899173784e-05 0.0000000000000000 1.5321077739827160e-14 2.2204460492503131e-15 2.3841355556442068e-09 0.024250467100519538 1.9495462038207993e-10 1.1429257798337770e-10 1.1351323713213867e-10 0.0000000000000000 -26.768365491316434 -129.50173712462359 143.84833436668455 49.139845408488213 0.0000000000000000 0.0000000000000000 0.0000000000000000 0.0000000000000000 3.2260452762597400 3.4650945093657000 1.2392466153313852 1.1177869868931163 1077.1891158761175 1077.9248008665929 1.1131719776241302 
-40.924969382054314 -65.273980589203248 150.37666555369270 -40.924969382054314 -65.273980589203248 150.37666555369270 -517.61619461724536 -1.5040262439069295e-05 -1.3708724412932881e-06 2.8979913415034481e-05 -522.51939267911177 2.2648549702353193e-14 0.0000000000000000 1.9723991329101409e-09 0.024246590548420228 5.3955215399547923e-12 8.0521364918897430e-13 -2.0424942019248585e-11 0.024234619924151997 -40.068761925200000 -65.476070995999990 153.95338104800004 156.95717166164070 0.0000000000000000 0.0000000000000000 0.0000000000000000 0.0000000000000000 3.2084940281568750 3.4270537677153481 1.2187139242844505 1.1031018902709782 1326.4818700396959 1326.4716539703443 1.1039640947991864 
-53.492146982111791 -59.379185164274922 145.34058524817203 -53.492146982111770 -59.379185164274908 145.34058524817198 -526.01416727335993 -1.7976818558619607e-05 -3.5242738451567966e-06 2.0843036493897090e-05 -528.61180371962303 3.0198066269804252e-14 -1.3322676295501880e-15 2.1634658509128712e-09 0.024269439985458448 1.8712531544510977e-11 -3.0389663978442850e-11 7.1907367226167864e-11 0.024264114212157111 -52.426757905599978 -59.655776269200025 149.26381449600007 118.05125250056595 0.0000000000000000 0.0000000000000000 0.0000000000000000 0.0000000000000000 3.2173858313773018 3.4459272962476857 1.2287080940069919 1.1034938644117223 1358.3079191558281 1358.2973902721674 1.1084971815561249 
-35.946253619621316 -65.834767198256785 140.76127686120967 -35.946253619621309 -65.834767198256799 140.76127686120964 -500.85033341862447 -3.7356106106794958e-06 2.0674113245756130e-06 4.0798973151646449e-07 -500.59353654779801 1.9761969838327786e-14 5.7731597280508132e-15 2.3372290769430037e-09 0.024249920421473378 3.5047260631577833e-11 -4.4722933175275631e-11 9.1722082856038819e-11 0.024220782539372300 -35.172917262399999 -66.029770167599992 144.99959110400002 155.12084301790807 0.0000000000000000 0.0000000000000000 0.0000000000000000 0.0000000000000000 3.2151363239284003 3.4401579389888686 1.2251545502184702 1.1054567167964151 1311.0947702149174 1311.0982620301652 1.1068701631725726 
-51.444127888896809 -66.402297890870173 137.75855000911500 -51.444127888896816 -66.402297890870173 137.75855000911500 -511.37977295041497 -1.7229582549003889e-05 1.1253264755929095e-05 1.2051602684536421e-05 0.0000000000000000 2.5535129566378604e-14 2.2204460492503131e-16 2.4511752627631722e-09 0.024302185297664619 3.8169897876741877e-11 -3.2041805097440398e-11 9.2907997226496533e-11 0.0000000000000000 -50.412828244765279 -66.590128188430739 142.20347059834828 136.07757377940416 0.0000000000000000 0.0000000000000000 0.0000000000000000 0.0000000000000000 3.1937565069867495 3.3934010706365858 1.1996375226332281 1.0977324634253984 1285.1994429327754 1285.1917634855845 1.0952424569864438 
-96.338285119611825 -159.70815627964720 68.410357649435767 -96.338285119611797 -159.70815627964723 68.410357649435781 -932.92127373262394 -2.4253407782499889e-05 -3.6294353486586670e-05 -5.1782290047675988e-05 -933.85212925398798 4.2743586448068520e-14 -9.7699626167013776e-15 5.0824624509004942e-09 0.025711408453474135 9.4050620254526121e-11 -9.7289020619028984e-11 5.6628499510873741e-11 0.025692054819601223 -94.559718839999974 -158.71675115199997 77.626866652000004 109.98746742214213 0.0000000000000000 0.0000000000000000 0.0000000000000000 0.0000000000000000 3.2122239963246737 3.4344566706648716 1.2223679766877429 1.1060465542005353 2057.3547945272867 2051.3861257588460 1.1056003808136177 
-91.378143829472052 -159.45460585559687 73.577367315229822 -91.378143829472052 -159.45460585559687 73.577367315229822 -862.76032324536311 -8.8072906889118943e-05 -8.3111861085513004e-05 -0.00010555861014260463 -840.70943286807790 4.2965631052993564e-14 -1.0214051826551442e-14 4.8864059465358878e-09 0.025685691237365030 2.7294963068805768e-11 -1.4920482073184544e-10 -3.7762649072976993e-11 0.025680603782513869 -89.682139475999989 -158.46640519600001 82.438353807199988 112.88451412247700 0.0000000000000000 0.0000000000000000 0.0000000000000000 0.0000000000000000 3.2148250630650854 3.4393168920514223 1.2246148171797793 1.1060465542005369 1930.3997622140096 1929.8381707807575 1.1065926868053408 
-104.62638898979078 -155.88715245222932 78.056169037040377 -104.62638898979081 -155.88715245222923 78.056169037040434 -850.80405990497991 -2.0818036680834547e-05 -2.0042432011903538e-05 -0.00011752812341267545 0.0000000000000000 5.1181281435219723e-14 1.6431300764452314e-14 4.7164672167809840e-09 0.025745435346777378 6.7936131323644091e-11 -1.5188488707297450e-10 1.5804640165022248e-10 0.0000000000000000 -102.70986659571734 -154.94403864466588 86.608986019839278 111.02505284862640 0.0000000000000000 0.0000000000000000 0.0000000000000000 0.0000000000000000 3.2167364500585944 3.4439947920754999 1.2273968784489429 1.1033169290715668 1930.4518910017209 1927.9583696702980 1.1079378496370611 
-102.28460794871444 -168.27357142675038 74.900100986161149 -102.28460794871444 -168.27357142675038 74.900100986161135 -906.07562755318872 -1.1336171638050174e-05 -2.5595577806347220e-05 -0.00011310851503769286 0.0000000000000000 4.9849013805669535e-14 -7.1054273576010019e-15 4.8362185367523125e-09 0.025651722518014879 3.9909142666734131e-11 -5.2521391495746794e-11 1.9098469595331990e-11 0.0000000000000000 -100.40706467681501 -167.17391327890167 83.670075146830683 105.53983917324770 0.0000000000000000 0.0000000000000000 0.0000000000000000 0.0000000000000000 3.2126986570984100 3.4354667120679729 1.2229032799227044 1.1038329385803041 2005.8050642093799 2015.0767834414803 1.1058565709635166 
-116.74225412773642 -100.04318767033840 88.755637054200136 -116.74225412773643 -100.04318767033838 88.755637054200164 -695.50944755040757 -1.9659903272283114e-05 -2.8358709944326826e-05 -8.4333851050697302e-05 -705.33652616887116 5.2269215490450656e-14 -8.8817841970012513e-16 4.3104950719907720e-09 0.025995770195748162 7.0429505217347316e-11 3.5309184745601876e-11 4.5562831877443713e-10 0.026008637445538548 -114.62406224400000 -99.805851428000011 96.572263865600007 85.211636250682801 0.0000000000000000 0.0000000000000000 0.0000000000000000 0.0000000000000000 3.2192307759148426 3.4475535052307316 1.2283098843785685 1.0961890752423729 1653.6555577448528 1653.6554628082388 1.1082373297841346 
-113.14589228543684 -91.223511750019881 92.674267962781670 -113.14589228543683 -91.223511750019867 92.674267962781656 -652.39693203545073 -8.4566252174499591e-06 -1.3778316468322734e-06 -9.1083342810367829e-05 -646.53749169731520 5.5844218138645374e-14 0.0000000000000000 4.1618122281761316e-09 0.025852641545216333 -5.8803598107702067e-12 -1.3878326504950162e-10 5.4957732679953748e-10 0.025774677033916952 -111.08756211600000 -91.097641973600034 100.22126851279998 99.535403830130534 0.0000000000000000 0.0000000000000000 0.0000000000000000 0.0000000000000000 3.2326081753316296 3.4776853450810186 1.2452984095137671 1.1021791962978520 1604.3864449419175 1604.3884338675775 1.1160559804513261 
-114.99343063673672 -97.865620192695701 101.44316564810340 -114.99343063673676 -97.865620192695673 101.44316564810339 -593.10646583873722 -8.6027793732132038e-06 -6.3640752568117648e-06 -8.1879699226866559e-05 -592.29040521829836 5.5400128928795318e-14 6.6613381477509392e-16 3.8290846049449101e-09 0.025480424081785753 1.0576380950619893e-10 1.9306933137037880e-10 5.1649281456026393e-10 0.025472300688628050 -112.90434805199999 -97.655804887999992 108.38681131359999 128.09762094244454 0.0000000000000000 0.0000000000000000 0.0000000000000000 0.0000000000000000 3.2166436242854028 3.4451218174137095 1.2286545238535405 1.1023087875475877 1478.4757148407468 1478.4693816909119 1.1084538705162521 
-109.14642503487541 -104.13019066978487 93.027466739966812 -109.14642503487541 -104.13019066978492 93.027466739966755 -642.61506075324405 -9.4232009391606811e-05 -9.0359308545852401e-06 -9.6455182787855514e-05 0.0000000000000000 5.6954441163270531e-14 1.7763568394002505e-15 4.1484096158228567e-09 0.025883236952487343 9.6003125715147890e-12 1.5318942818713175e-10 3.7924736073360031e-10 0.0000000000000000 -107.15466629968294 -103.84120130723400 100.55016500991876 102.24201981555134 0.0000000000000000 0.0000000000000000 0.0000000000000000 0.0000000000000000 3.1829370199665448 3.3665975419336909 1.1835125372762332 1.0874645332083186 1483.4689942972277 1483.4707845103337 1.0877488880034110 
-27.609836833022239 -115.68552725496596 95.797003340842537 -27.609836833022225 -115.68552725496600 95.797003340842522 -187.73726900582153 7.0301405542751497e-05 2.7898480213151985e-05 -9.4296163785494790e-05 0.0000000000000000 -3.1842606463471153e-07 2.1360938537834413e-06 4.0627340090679381e-06 0.026873499136332489 -4.8908784677061107e-11 1.9293215425781738e-09 4.0136263336561159e-09 0.0000000000000000 -26.889884864405381 -115.37486796036181 103.37575244326078 96.382960025775517 0.0000000000000000 0.0000000000000000 0.0000000000000000 0.0000000000000000 3.2921051589729999 3.6052241450383922 1.3134434062877127 1.1453142977915269 881.97498640319805 881.97497680902586 1.1460213930580354 
-111.60094863375029 -103.90795401398090 148.49098802804218 -111.60094863375026 -103.90795401398094 148.49098802804218 -532.75004916277203 1.7765773707557795e-06 6.0225857975842856e-06 5.6185351436679492e-07 -535.22238817875689 4.9182879990894428e-14 -2.4424906541753444e-15 2.0439259174054314e-09 0.024185366678344845 1.4345257372982053e-11 2.1877818462645358e-11 3.8056331588124114e-11 0.024163552316886400 -109.56833416800004 -103.62177336400003 152.19744990400002 70.302883591683823 0.0000000000000000 0.0000000000000000 0.0000000000000000 0.0000000000000000 3.2054279189217785 3.4190637602027896 1.2137194063253733 1.1019441822529266 1346.4223816748104 1346.4226778314319 1.1017081474901609 