# For a description of the Tecplot format see the Tecplot User's guide.
#
Variables=x,y,z,s_u,s_v,s_w,s_p,mono_f_vel_u,mono_f_vel_v,mono_f_vel_w,const,u_nu,v_nu,w_nu,p_nu,x_nu,y_nu,z_nu,const,u_ref,v_ref,w_ref,vol_ref,x_ref,y_ref,z_ref,const,I1,I2,I3,J,p1,p2,p3
Zone f=fepoint, n=3174, e=16683, et=brick, c=black
-25.5999 -155.244 104.435 -25.599880347694906 -155.24393627535895 104.43533301509594 -362.44285180940642 -4.0504570596568459e-05 -0.00015446365712596167 -0.00016264200774613235 -342.22861391977852 4.9377169020203837e-14 7.9936057773011287e-15 1.0980159004247980e-08 -0.0037552602584038520 -3.0619066896731998e-11 -1.5062743841730123e-10 1.4033181233743187e-10 -0.0037322148814933403 -24.903554063199991 -154.16086777200002 112.24023381839994 89.724962256112903 0.0000000000000000 0.0000000000000000 0.0000000000000000 0.0000000000000000 3.2614294391875145 3.5341112350262880 1.2725449677387461 1.1307138590264678 1124.1216018302925 1116.5068305110221 1.1278959249920768 
-38.441837827154011 -156.71540468542159 107.17491099958207 -38.441837827154011 -156.71540468542159 107.17491099958212 -294.10618900102963 0.00012694622458728742 -0.00011964863235684429 -7.9885690913081533e-05 0.0000000000000000 5.2982291739388547e-07 -4.4146404461928452e-07 -1.8405663626388744e-07 -0.0039324707891736765 -4.2368925925849728e-10 1.5874742853331452e-10 -3.0959531473772513e-11 0.0000000000000000 -37.438273663334591 -155.10473791080037 114.93291110338620 89.036758072416930 0.0000000000000000 0.0000000000000000 0.0000000000000000 0.0000000000000000 3.3466762493684246 3.7257809258949770 1.3798309981331187 1.1652294695491112 1168.4761778210270 1166.7733923483504 1.1748591465147238 
-32.369472678406602 -148.86880934933342 112.71649094231357 -32.369472678406616 -148.86880934933339 112.71649094231360 -247.52271055655626 3.7619542304044932e-05 -8.3849937584080635e-05 -3.4527205847493141e-05 0.0000000000000000 5.5316862201948418e-14 9.3258734068513149e-15 1.0051607546301964e-08 -0.0037561498676571786 -1.3831146330310127e-10 -7.0356489823178854e-11 -5.2499852538880431e-11 0.0000000000000000 -31.542619574254449 -147.87907313389167 119.86135157363466 98.260374494724786 0.0000000000000000 0.0000000000000000 0.0000000000000000 0.0000000000000000 3.2929299584394998 3.6064174149239108 1.3137251494609850 1.1494503231989219 1017.1800960225773 1011.2779582649483 1.1459517640150567 
-29.417592676272246 -143.88414193415190 104.30959862043059 -29.417592676272225 -143.88414193415198 104.30959862043061 -247.06441470295240 4.0349895586003940e-05 -0.00011486969471407885 -6.6789835909408722e-05 0.0000000000000000 5.2874371547773087e-14 8.4376949871511881e-15 1.0994249066698103e-08 -0.0037448540195363237 -5.3338775093416356e-10 1.4562617739183524e-11 -5.5885955971624731e-11 0.0000000000000000 -28.647655777685479 -142.96738158566356 112.12452093910819 112.69127588814607 0.0000000000000000 0.0000000000000000 0.0000000000000000 0.0000000000000000 3.3061932638555152 3.6367010095342387 1.3310205996653928 1.1502126902172827 1031.6681241467004 1052.7085308342396 1.1537080642337576 
-24.945570509642991 -202.20270777541037 62.586100733754023 -24.945570509642991 -202.20270777541035 62.586100733754037 -1156.8735501371841 8.5172580880242169e-06 9.8312104347155547e-07 5.2650080783085557e-06 -1163.2372975298401 4.6712633761103455e-14 1.6875389974302379e-14 1.5672700470759082e-08 -0.0028138547696377868 -2.4380140042398999e-10 -8.1534347653051656e-12 -6.5179018399126255e-11 -0.0028033694072727702 -24.261860196399997 -200.43215969199997 73.726546483199982 142.71380061529433 0.0000000000000000 0.0000000000000000 0.0000000000000000 0.0000000000000000 3.2506642905274536 3.5151591189387039 1.2647109015860265 1.1244316415253168 2518.4154759962162 2518.4064251209165 1.1245944023710148 
-24.839054300672231 -189.21955150852392 64.306564032623967 -24.839054300672228 -189.21955150852389 64.306564032623982 -1136.7468843852209 2.8549556097115876e-05 -3.7436009551817838e-05 -1.2006471855132707e-05 -1144.5280456920766 4.8322457146809951e-14 2.7089441800853826e-14 1.5479788118000215e-08 -0.0028461911007159227 -1.7288059868037301e-10 -2.6474810623206318e-11 -4.8054341622319030e-11 -0.0028728890406604255 -24.157397762799999 -187.63907770800003 75.309882232799993 165.73632395326644 0.0000000000000000 0.0000000000000000 0.0000000000000000 0.0000000000000000 3.2507312366891972 3.5151977856500984 1.2646783048992041 1.1244316415253168 2484.8180315360960 2484.7958055058125 1.1245755461489575 
-35.778118643285147 -197.10727960733121 71.137839910746891 -35.778118643285126 -197.10727960733126 71.137839910746891 -1124.4451142909468 1.3886101406950403e-05 -2.9367949974365836e-05 -5.6610850626865957e-05 0.0000000000000000 6.4420691003874708e-14 2.1316282072803009e-14 1.4713805285282433e-08 -0.0029533109013185855 -3.8919928437481098e-10 4.1994274352208625e-10 -9.0139536890306055e-10 0.0000000000000000 -34.885542273181727 -195.41132893576267 81.596679120775832 139.46796289390394 0.0000000000000000 0.0000000000000000 0.0000000000000000 0.0000000000000000 3.2483693524690587 3.5104106189082112 1.2622576465321280 1.1221297467601272 2459.2744996619626 2459.3510830163709 1.1234996907187118 
-19.399373150467536 -196.21255179781014 70.938204040992716 -19.399373150467529 -196.21255179781016 70.938204040992744 -1147.4947084113887 1.4617357821224334e-05 -1.9065584928682175e-05 -2.6614005157549663e-05 0.0000000000000000 3.9551695252271195e-14 3.9968028886505628e-15 1.4736187381458876e-08 -0.0026703243805848193 1.5265806905155060e-11 1.9353830098985086e-11 -1.1849162474661046e-10 0.0000000000000000 -18.822600960987238 -194.52970000168264 81.412954998504986 111.95285379220412 0.0000000000000000 0.0000000000000000 0.0000000000000000 0.0000000000000000 3.2511510058764523 3.5161088855923581 1.2651731157043782 1.1244316415253170 2513.8260249548975 2513.8244444363099 1.1248024819418923 
-23.316277431452978 -103.53394002469885 29.457781177376212 -23.316277431452981 -103.53394002469885 29.457781177376212 -1094.4326904969894 -3.5716393008999891e-05 4.3303436228769038e-05 -5.9258044847920558e-05 -1107.1381913832831 4.3992587350771834e-14 -4.4408920985006262e-16 1.9387371708035062e-08 0.0012264664087571079 4.2395521338057329e-10 -7.0076006326776970e-10 8.8656383148460731e-10 0.0013360821228075219 -22.663982073999996 -103.20790935200000 43.238681550399988 69.202643319072678 0.0000000000000000 0.0000000000000000 0.0000000000000000 0.0000000000000000 3.2501684146916072 3.5140970487858145 1.2641431564998087 1.1244316415253155 2412.1181227765992 2415.0230499749409 1.1243437742579252 
-30.951166953922300 -111.21153817107599 33.532637345948949 -30.951166953922307 -111.21153817107599 33.532637345948949 -1063.2510670741697 2.0223175556564661e-06 6.7017787537241311e-05 -8.0156119077021053e-05 -1054.6976709557405 5.5760951411798494e-14 -2.4424906541753444e-15 1.8930457201804529e-08 0.00078637902435369715 1.8507853063204507e-10 -1.1243158509224644e-09 1.0825532691729729e-09 0.00054664334473022113 -30.151660686400003 -110.77310694400001 46.988755992800002 74.715282964229786 0.0000000000000000 0.0000000000000000 0.0000000000000000 0.0000000000000000 3.2513889607894448 3.5165888626621999 1.2654146007495211 1.1244316415253162 2352.4984886223465 2349.0338706646248 1.1249134300676862 
-19.310203186987760 -103.89841492987837 36.813823854748321 -19.310203186987760 -103.89841492987837 36.813823854748314 -1040.2374810044269 -4.4019286503022919e-05 3.5337099752660448e-05 -8.4734417371300450e-05 -1042.7177169705376 3.9329650647346170e-14 3.7747582837255322e-15 1.8562538173227949e-08 0.00045183115261776758 6.2927808292141224e-10 -6.6378133594015788e-10 1.1507514769036001e-09 0.00042646474290441343 -18.735150314000002 -103.56704831999998 50.008419303199993 79.719497061372692 0.0000000000000000 0.0000000000000000 0.0000000000000000 0.0000000000000000 3.2502776382609433 3.5143128238850090 1.2642494905659583 1.1244316415253170 2315.1173217143992 2289.9135095536071 1.1243886089202240 
-26.199772236857871 -98.743487306378356 37.871981772423851 -26.199772236857864 -98.743487306378341 37.871981772423851 -1055.6781482834142 2.3836576056208828e-06 1.5445413464325185e-05 -0.00013095314606657510 0.0000000000000000 4.8766546356659995e-14 9.3258734068513149e-15 1.8443884641783370e-08 0.00087582559571335223 3.1865703506284395e-10 -6.4746517792010240e-10 1.4991271542884663e-09 0.0000000000000000 -25.491879232152165 -98.487589184379729 50.982237960580505 72.292163684038698 0.0000000000000000 0.0000000000000000 0.0000000000000000 0.0000000000000000 3.2500621837530685 3.5139402479793165 1.2640948123133773 1.1244316415253164 2339.0091056457536 2333.9864043571165 1.1243160851855765 
-26.148610568218110 -104.44319675491181 100.59419555490017 -26.148610568218114 -104.44319675491174 100.59419555490014 -232.34599160628767 3.7249909331693984e-05 0.00012302632601084599 -9.8023447461208077e-06 0.0000000000000000 2.2225245696921405e-08 -6.6949645973564438e-07 4.7087518927936053e-07 -0.0030126261108408773 2.3166730705539307e-10 -1.5895667558198092e-10 -5.8495547641823913e-10 0.0000000000000000 -25.283559732051039 -104.23282252886388 108.75695162467670 96.378087069502698 0.0000000000000000 0.0000000000000000 0.0000000000000000 0.0000000000000000 3.2961549286062413 3.6113532560935613 1.3152269223030786 1.1537858997477832 968.07780345353626 968.04910547102122 1.1466157506545691 
-26.818845359223705 -118.42988704850504 102.61333408405082 -26.818845359223705 -118.42988704850498 102.61333408405075 -158.85172604023174 4.8021304254069069e-05 2.1878787474664271e-06 -4.0781552939047625e-05 0.0000000000000000 -3.2302748443925607e-08 -1.1270546095875266e-06 4.2118669283503456e-07 -0.0033326907897454176 1.7889545018825671e-10 -6.0738805614597036e-10 -6.0734708043166730e-10 0.0000000000000000 -25.913646985361510 -118.01095136745833 110.66456878241424 88.846747377876298 0.0000000000000000 0.0000000000000000 0.0000000000000000 0.0000000000000000 3.3815262352543090 3.7986893527425147 1.4179353503297658 1.1788391647834517 995.67753079287354 996.23624461277086 1.1909886378937096 
-37.582878567312406 -112.76584551889684 104.16054347159827 -37.582878567312399 -112.76584551889677 104.16054347159832 -165.17908608361523 -4.4563314382216657e-05 5.6662584526886834e-05 3.3732919317291348e-05 0.0000000000000000 -9.2923166508908351e-08 -2.2544029479161243e-06 1.2131053161793826e-06 -0.0031821671020498578 -2.3624196007306610e-10 -2.4345222405969490e-10 2.4219956462382894e-10 0.0000000000000000 -36.236867317722961 -112.72601430119678 112.03758904139967 95.996160021407249 0.0000000000000000 0.0000000000000000 0.0000000000000000 0.0000000000000000 3.3896377046736164 3.8172266559666612 1.4285483962935552 1.1881432978085158 1024.2768299339007 1024.0977801560084 1.1952480961772805 
-34.521052134157095 -105.01966007752524 97.004806916621931 -34.521052134157109 -105.01966007752524 97.004806916621888 -225.84788343747638 9.7566420129790115e-07 0.00013873083690859328 -1.2367051908282953e-05 0.0000000000000000 -2.2738979823976237e-08 -1.8597224808417923e-06 1.8604712661914686e-06 -0.0030737744235615799 1.4959266014627266e-10 -2.1506095867624970e-10 -4.6136903411644731e-10 0.0000000000000000 -33.380789828628046 -105.09637623893835 105.63342596379557 85.433794965156210 0.0000000000000000 0.0000000000000000 0.0000000000000000 0.0000000000000000 3.3579109854126155 3.7440572463598625 1.3865102323644107 1.1697363731969808 1030.7311537701828 1030.7281191259715 1.1774665085591700 
-114.63241529867817 -161.84316120515683 117.93537560599840 -114.63241529867815 -161.84316120515680 117.93537560599840 -640.66198281679419 7.3234250116231116e-06 -2.2897472496338433e-05 -5.2553587213970594e-05 -638.14071920808874 1.6134316105365085e-13 4.4408920985006262e-15 9.4664045491299476e-09 -0.0032184065986948277 1.8852747305021485e-11 -6.0274111780723180e-11 -5.5166710709429613e-11 -0.0032158830704545269 -112.21942232800005 -160.66347960400000 124.66427103520003 147.55923210393107 0.0000000000000000 0.0000000000000000 0.0000000000000000 0.0000000000000000 3.2675686083535260 3.5534266770933907 1.2862132746679387 1.1244316415253175 1653.0079370475989 1653.0079555429172 1.1343600911504037 
-101.69618252359541 -159.23620453927461 109.15621264781797 -101.69618252359537 -159.23620453927467 109.15621264781795 -665.60315519220592 -4.9240271373619346e-05 -3.8839607215088708e-05 -9.7518766507020138e-05 0.0000000000000000 1.4357959265964839e-13 4.4408920985006262e-16 1.0450804666106706e-08 -0.0033177493158747821 9.2048549063991187e-11 -8.6624377700287236e-11 -4.2681843131771027e-11 0.0000000000000000 -99.532617471171264 -158.09468895943013 116.58484116745363 117.70414803503969 0.0000000000000000 0.0000000000000000 0.0000000000000000 0.0000000000000000 3.2115386786344979 3.4202547484587602 1.2082445484083311 1.1035466754672660 1579.2513919065025 1579.2523219007974 1.0989843666388810 
-106.60069314802541 -149.85921564293864 113.83614039205669 -106.60069314802543 -149.85921564293861 113.83614039205669 -617.01422076710003 -4.0634807698832944e-05 -4.4548880686796514e-05 -4.3657896992751484e-05 0.0000000000000000 1.5201728764679956e-13 -3.1086244689504383e-15 9.9260439867521183e-09 -0.0031968189225203927 5.3599223111126990e-11 -7.8346482592664341e-11 -6.1148457463503688e-11 0.0000000000000000 -104.34256255272837 -148.85497981259945 120.89176065121424 119.29379793442074 0.0000000000000000 0.0000000000000000 0.0000000000000000 0.0000000000000000 3.2113032009893394 3.4256178282261520 1.2142454937601768 1.1055149444066616 1499.6766180625414 1499.6765008427026 1.1016553407583241 
-102.71359176188048 -163.48679929129165 117.83056629936766 -102.71359176188055 -163.48679929129170 117.83056629936758 -632.67404361625938 -2.5816815181404819e-05 -5.8370989468921604e-05 -4.8004625835575071e-05 0.0000000000000000 1.5046297541232434e-13 1.7319479184152442e-14 9.4781569259794196e-09 -0.0032709037592344656 7.8697732858165628e-11 -8.3480292457236588e-11 -1.0288434521230197e-10 0.0000000000000000 -100.53040969477119 -162.28305471776312 124.56781543385799 141.51484144144280 0.0000000000000000 0.0000000000000000 0.0000000000000000 0.0000000000000000 3.2152787564034511 3.4372502344085123 1.2219533529458808 1.1069751452203629 1535.7482406239217 1535.7480807992299 1.1052400864078544 
-80.148626852648675 -149.80081888587966 79.669386846841604 -80.148626852648690 -149.80081888587964 79.669386846841590 -697.48484149147612 -0.00011801955062463396 -8.6355815665634491e-05 -4.1917360578253920e-05 -699.46218003058971 1.2048695374744509e-13 2.2648549702353190e-14 1.3757166072991822e-08 -0.0030563052735317624 1.8239493309866398e-10 1.8198842845321413e-10 5.8002310818527530e-11 -0.0030632913075644588 -78.400527573600002 -148.79743798799998 89.448228916799977 108.06316173413846 0.0000000000000000 0.0000000000000000 0.0000000000000000 0.0000000000000000 3.2676355409167264 3.5510969422088228 1.2837698224362268 1.1244316415253175 1755.8178101292253 1755.7896975515398 1.1332564254150788 
-81.931845413390420 -163.74212690297409 77.849082373114172 -81.931845413390420 -163.74212690297412 77.849082373114172 -882.02890177822360 -6.6567653054459510e-05 -0.00014301972542594396 -7.7822409462510449e-05 -889.15385616243975 1.1604606164894449e-13 2.4424906541753444e-14 1.3961273026552588e-08 -0.0028582105968391501 -1.4896374571110055e-10 2.4816847274380849e-10 2.0436057112494900e-11 -0.0027585221393837929 -80.149363288800018 -162.53464431600008 87.773009718400019 109.57810873427631 0.0000000000000000 0.0000000000000000 0.0000000000000000 0.0000000000000000 3.2698031929129452 3.5545616327495257 1.2849960855949794 1.1244316415253179 2079.7779316596684 2080.0120392830727 1.1338579246008540 
-86.159475108105312 -161.35699750854565 85.672852481231487 -86.159475108105241 -161.35699750854565 85.672852481231516 -796.79870533720521 -4.5841548252767570e-05 -9.7040276394489347e-05 -0.00014216438645488908 0.0000000000000000 1.2492784584594571e-13 2.3536728122053319e-14 1.3083994332419024e-08 -0.0029104013322219196 4.6102785234721561e-10 -1.6102711799532420e-10 2.5877242455942879e-10 0.0000000000000000 -84.295478612813938 -160.18443337667750 94.973195224810283 106.11323630727971 0.0000000000000000 0.0000000000000000 0.0000000000000000 0.0000000000000000 3.2041369284251808 3.4186845698190198 1.2146605621192921 1.1056076319304933 1794.7272504294085 1794.5968376207168 1.1017066105580824 
-88.380838034654957 -152.43205143573519 83.131594058875976 -88.380838034654957 -152.43205143573513 83.131594058876033 -761.55852806057146 -5.4089760604934311e-05 -0.00012651980328164754 -0.00013498855031621315 0.0000000000000000 1.3247736241339680e-13 1.2434497875801753e-14 1.3368936180313540e-08 -0.0029607849068303440 9.5830187368309036e-11 1.0859800752454120e-10 4.1913379369312316e-11 0.0000000000000000 -86.474010682800568 -151.39014911596544 92.634484883397832 94.367740677547317 0.0000000000000000 0.0000000000000000 0.0000000000000000 0.0000000000000000 3.2272223564458495 3.4671001922369218 1.2400977212761084 1.1099299898794623 1771.1922948864931 1771.2030782400836 1.1136045040759119 
-26.736906197889894 -133.19110873366139 133.12652197969578 -26.736906197889883 -133.19110873366139 133.12652197969578 -349.40761530366643 3.7185799477228367e-05 -3.1574985582474933e-05 0.00014575188356352219 -372.52603850789279 4.8877568659122517e-14 8.4376949871511897e-15 7.7630346595469746e-09 -0.0031260420401455187 -1.4184426214307168e-10 3.4771349827085891e-11 -1.0454021476580319e-10 -0.0030575760190759966 -26.018656529999991 -132.43089511199997 138.64462455200004 49.421240865332216 0.0000000000000000 0.0000000000000000 0.0000000000000000 0.0000000000000000 3.2476987017518373 3.5082521346794064 1.2607721226542457 1.1316310790600428 1107.9898334298107 1107.9973943461939 1.1229550908632144 
-33.341033004720842 -134.73969839874201 131.99463156336347 -33.341033004720849 -134.73969839874192 131.99463156336344 -328.73230336378435 -2.3707944779816117e-06 2.7833237823225102e-05 7.6309938471526054e-05 -254.34173589828239 6.1201044232461754e-14 1.2434497875801755e-14 7.8899304867263709e-09 -0.0032325874778668354 -1.0197275491446240e-10 -1.6758208258139090e-10 -2.5875960882317719e-10 -0.0032633747948859048 -32.495446914399992 -133.95681332000001 137.60295016000006 48.530522504776933 0.0000000000000000 0.0000000000000000 0.0000000000000000 0.0000000000000000 3.3053972032431194 3.6341173574738357 1.3291709308907960 1.1519659105968016 1179.8019983839404 1179.8031223807154 1.1527207554001391 
-29.183629633730373 -137.25853817078905 134.93615684625004 -29.183629633730380 -137.25853817078905 134.93615684625004 -349.83856439055472 4.0694491349666365e-05 3.5672184244128472e-05 4.6600851233645150e-05 -369.47263393286261 5.3651527665010690e-14 1.9539925233402755e-14 7.5601107596412476e-09 -0.0031707712434948035 -9.4027901396314866e-11 -4.7003156331398731e-11 -1.6511923741035460e-10 -0.0031272904423343957 -28.418203856399998 -136.43877710800004 140.31002455199999 44.353383947079159 0.0000000000000000 0.0000000000000000 0.0000000000000000 0.0000000000000000 3.2591375159885292 3.5318919878888688 1.2729288008021782 1.1370910333422333 1131.6456844425700 1131.6680271833682 1.1282052059751029 
-27.501354752636484 -130.21843053711200 138.78090814283010 -27.501354752636484 -130.21843053711200 138.78090814283007 -381.38839363983567 2.1946021361193897e-05 2.6319382522391061e-05 2.5581520596085268e-05 0.0000000000000000 4.9432680171435095e-14 -3.1086244689504383e-15 7.1289925074324856e-09 -0.0030828382366624575 -6.0456178813268967e-11 -5.6521496917014527e-11 -6.2527542159960735e-11 0.0000000000000000 -26.768365491316434 -129.50173712462359 143.84833436668455 49.139845408488213 0.0000000000000000 0.0000000000000000 0.0000000000000000 0.0000000000000000 3.2650086625885226 3.5477670479697081 1.2830722145341225 1.1378439655528927 1210.3663582481372 1210.3636111885573 1.1326736955670569 
-41.063242573192589 -65.241497732409385 149.76111998543050 -41.063242573192596 -65.241497732409371 149.76111998543050 -572.54701694441269 -1.6832540912989625e-05 -1.7523293208811326e-06 3.3519127069005351e-05 -578.18161619489797 7.1415096059013194e-14 -7.7715611723760958e-15 5.8977995820441720e-09 -0.0028425045457740124 1.9280151379813116e-11 -1.7481056059929451e-11 2.2987057042080636e-11 -0.0028431807065680556 -40.068761925200000 -65.476070995999990 153.95338104800004 156.95717166164070 0.0000000000000000 0.0000000000000000 0.0000000000000000 0.0000000000000000 3.2450266608393976 3.5038434362412114 1.2590618948128809 1.1210170654505947 1491.7115094018297 1491.7042722596864 1.1220932967508188 
-53.664201951072677 -59.334727491126820 144.66540535739770 -53.664201951072677 -59.334727491126834 144.66540535739770 -581.88617934058391 -2.0798282690396194e-05 -3.8587801975819992e-06 2.3739620385667372e-05 -584.93194482777847 8.2739370910189779e-14 -4.8849813083506888e-15 6.4691860757193353e-09 -0.0028186909500367988 -5.1281850593961014e-12 -8.3180767208030041e-12 2.8100788257103042e-11 -0.0028200667733887384 -52.426757905599978 -59.655776269200025 149.26381449600007 118.05125250056595 0.0000000000000000 0.0000000000000000 0.0000000000000000 0.0000000000000000 3.2551701271254809 3.5255890689653051 1.2706836123722260 1.1214506379661331 1527.2206741314681 1527.2448790042799 1.1272810620035540 
-36.071143545631891 -65.803423535645805 140.03187147428287 -36.071143545631898 -65.803423535645820 140.03187147428292 -553.42391446877252 -3.9501214559493351e-06 2.1268525631800122e-06 2.5370502712768622e-07 -553.16628426557622 6.4642735608799740e-14 -7.3274719625260332e-15 6.9887207132524054e-09 -0.0028272993427785396 1.4474544957107387e-11 -1.9727908020363946e-11 3.6931347268132422e-11 -0.0028322309543814673 -35.172917262399999 -66.029770167599992 144.99959110400002 155.12084301790807 0.0000000000000000 0.0000000000000000 0.0000000000000000 0.0000000000000000 3.2526061842503822 3.5187401673153524 1.2663454953272131 1.1237054756000049 1473.6947216372830 1473.7101458723396 1.1253242144639084 
-51.610677586253736 -66.372107122520916 136.99358808403744 -51.610677586253736 -66.372107122520916 136.99358808403747 -565.19091122647478 -1.9686492400381466e-05 1.3314284039976023e-05 1.3552056762539994e-05 0.0000000000000000 8.1962214792952182e-14 3.9968028886505635e-15 7.3294259550493726e-09 -0.0028097405284016621 1.1926165911015426e-11 -2.6515646411600639e-11 3.1086479960712000e-11 0.0000000000000000 -50.412828244765279 -66.590128188430739 142.20347059834828 136.07757377940416 0.0000000000000000 0.0000000000000000 0.0000000000000000 0.0000000000000000 3.2280815136896721 3.4643019569074780 1.2362124244759451 1.1147246394548989 1443.9353081589443 1443.9579348171212 1.1118015413291469 
-96.625514614244338 -159.86750907276837 66.824214921447833 -96.625514614244352 -159.86750907276837 66.824214921447833 -1053.2072358841340 -2.7850612021435934e-05 -4.2351378063267949e-05 -6.0448428305173576e-05 -1054.5423441392434 1.4291345884487328e-13 6.6613381477509400e-15 1.5197489489082727e-08 -0.0027540288648315761 1.0986242637105575e-10 -7.6388083643949915e-11 9.5414562282498859e-11 -0.0027436775837209955 -94.559718839999974 -158.71675115199997 77.626866652000004 109.98746742214213 0.0000000000000000 0.0000000000000000 0.0000000000000000 0.0000000000000000 3.2492818038754057 3.5122695690371799 1.2632034430647641 1.1244316415253173 2337.1334249485076 2337.5705142375550 1.1239136964889480 
-91.652039988938569 -159.61344358084111 72.052409298791318 -91.652039988938597 -159.61344358084111 72.052409298791318 -972.10107643280969 -0.00010142772517684871 -9.6849479146634459e-05 -0.00012310982715953416 -947.12979651970988 1.3625212069712234e-13 2.1760371282653071e-14 1.4611241994089141e-08 -0.0028132976872742793 8.0006195273724945e-11 -3.0698289021897593e-11 3.9732698230024667e-11 -0.0028503169038831848 -89.682139475999989 -158.46640519600001 82.438353807199988 112.88451412247700 0.0000000000000000 0.0000000000000000 0.0000000000000000 0.0000000000000000 3.2524283456113903 3.5180974192090280 1.2658651001513379 1.1244316415253153 2190.3862628298698 2190.2650655734110 1.1250647704377437 
-104.93589770195514 -156.03874317460438 76.584246375509437 -104.93589770195514 -156.03874317460435 76.584246375509380 -957.91688092971867 -2.4281392376495543e-05 -2.3458897463975634e-05 -0.00013596447598657722 0.0000000000000000 1.5557000132560006e-13 -2.6645352591003757e-15 1.4103097356610306e-08 -0.0027776255057402935 5.9894942868790508e-11 -1.3428263761496602e-10 2.4015745666429216e-10 0.0000000000000000 -102.70986659571734 -154.94403864466588 86.608986019839278 111.02505284862640 0.0000000000000000 0.0000000000000000 0.0000000000000000 0.0000000000000000 3.2545120401270440 3.5234264537014863 1.2691350349742836 1.1212313123035833 2189.7059567812885 2189.6026936715866 1.1266381395774301 
-102.58782172900496 -168.45032419153989 73.390806009536277 -102.58782172900497 -168.45032419153992 73.390806009536334 -1022.0556634957123 -1.3038172880987132e-05 -3.0085442044974332e-05 -0.00013110697592328934 0.0000000000000000 1.5135115383202447e-13 8.8817841970012523e-15 1.4461168262869251e-08 -0.0028130844901065708 1.0809545664829060e-11 -6.8659254100951611e-11 -7.6549240976137847e-11 0.0000000000000000 -100.40706467681501 -167.17391327890167 83.670075146830683 105.53983917324770 0.0000000000000000 0.0000000000000000 0.0000000000000000 0.0000000000000000 3.2498009672634960 3.5133862316032447 1.2638006706638840 1.1218335120935286 2277.2390246191221 2277.7131530416718 1.1241981464752877 
-117.08433144657161 -100.08133574126401 87.410411245724490 -117.08433144657162 -100.08133574126398 87.410411245724475 -777.14401997012658 -2.2794403099519427e-05 -3.3241365629031929e-05 -9.7775112352114420e-05 -788.50529363270311 1.6667695603872254e-13 6.8833827526759713e-15 1.2889159961559925e-08 -0.0022560140598961299 4.8620996446702494e-12 -1.2862415680222655e-10 3.1661029729182334e-10 -0.0022451549036453388 -114.62406224400000 -99.805851428000011 96.572263865600007 85.211636250682801 0.0000000000000000 0.0000000000000000 0.0000000000000000 0.0000000000000000 3.2578635837860195 3.5283161121899957 1.2704375801812307 1.1129857564564971 1867.9761920149979 1867.9758422347911 1.1270685181963702 
-113.47830223896595 -91.243743338381393 91.375444293515784 -113.47830223896592 -91.243743338381378 91.375444293515784 -727.27214976558867 -9.6846255986540580e-06 -1.6100680623818211e-06 -0.00010523496963903924 -720.52031268192400 1.6622814236200159e-13 -2.8865798640254070e-15 1.2444559160940116e-08 -0.0022774595385608798 -1.8805281509404382e-11 -1.5924482018852578e-10 4.7857330292802265e-10 -0.0023232480217565163 -111.08756211600000 -91.097641973600034 100.22126851279998 99.535403830130534 0.0000000000000000 0.0000000000000000 0.0000000000000000 0.0000000000000000 3.2728319621220483 3.5626329331708013 1.2901501947286371 1.1198378003008611 1809.8153179413359 1809.8162572108520 1.1360151550507607 
-115.33080695042150 -97.899344705420560 100.24817814524434 -115.33080695042146 -97.899344705420589 100.24817814524432 -658.49807592322054 -1.0000168265775902e-05 -7.6155527054720483e-06 -9.5209480794433539e-05 -657.61184161242102 1.6089907184380081e-13 4.4408920985006262e-15 1.1449664327756182e-08 -0.0025477914320538868 -2.5190871538234066e-11 -1.2492022357586231e-10 1.8828790581677442e-10 -0.0025634248763652854 -112.90434805199999 -97.655804887999992 108.38681131359999 128.09762094244454 0.0000000000000000 0.0000000000000000 0.0000000000000000 0.0000000000000000 3.2542829201114292 3.5247422205338435 1.2707397013655781 1.1200621428539390 1664.5971790437727 1664.5986491847025 1.1272810085945149 
-109.46808403712754 -104.17664116799247 91.732825444394692 -109.46808403712750 -104.17664116799246 91.732825444394663 -715.99954511069507 -0.00011025281422417077 -1.0527020090983111e-05 -0.00011122698146952835 0.0000000000000000 1.5779044737485037e-13 -1.1102230246251565e-15 1.2404488103356924e-08 -0.0024547681637616349 2.5130203476740154e-10 -1.1173978757113765e-10 2.1884170238027116e-10 0.0000000000000000 -107.15466629968294 -103.84120130723400 100.55016500991876 102.24201981555134 0.0000000000000000 0.0000000000000000 0.0000000000000000 0.0000000000000000 3.2160876746088474 3.4333426175386275 1.2170243708941941 1.1026919280816974 1672.1967486102226 1672.1967406340989 1.1029941758231097 
-27.721311525532577 -115.74202528545823 94.499613328713977 -27.721311525532567 -115.74202528545814 94.499613328714034 -200.82488259846951 8.0287919190618517e-05 3.0426821966249716e-05 -0.00010552840405905760 0.0000000000000000 -1.4503687966086859e-07 -1.2578336693902225e-06 1.0370923233839979e-06 -0.0034918994196160369 -2.7846298074328803e-10 -7.1588450136699434e-10 -5.7355847174772318e-10 0.0000000000000000 -26.889884864405381 -115.37486796036181 103.37575244326078 96.382960025775517 0.0000000000000000 0.0000000000000000 0.0000000000000000 0.0000000000000000 3.3416564683544534 3.7119113576522555 1.3707739515851975 1.1697870859627235 990.96592042712757 990.95386963906299 1.1707558916885108 
-111.92920563067685 -103.95395305578525 147.85311336753034 -111.92920563067682 -103.95395305578523 147.85311336753031 -588.39733100149556 1.9818242922631687e-06 6.7014665893809979e-06 6.7645564509156960e-07 -591.16400488466047 1.6533996394230144e-13 -6.6613381477509383e-16 6.1117333416405017e-09 -0.0028973765943190277 -1.0101536047859689e-11 -3.3675177366860981e-11 -8.5982080563417800e-13 -0.0028933774014594368 -109.56833416800004 -103.62177336400003 152.19744990400002 70.302883591683823 0.0000000000000000 0.0000000000000000 0.0000000000000000 0.0000000000000000 3.2415253747439370 3.4943255217441962 1.2529345137217935 1.1196695103052277 1511.7768775929469 1511.7768731158501 1.1193702659483227 