# For a description of the Tecplot format see the Tecplot User's guide.
#
Variables=x,y,z,s_u,s_v,s_w,s_p,mono_f_vel_u,mono_f_vel_v,mono_f_vel_w,const,u_nu,v_nu,w_nu,p_nu,x_nu,y_nu,z_nu,const,u_ref,v_ref,w_ref,vol_ref,x_ref,y_ref,z_ref,const,I1,I2,I3,J,p1,p2,p3
Zone f=fepoint, n=3174, e=16683, et=brick, c=black
-25.7020 -155.402 103.203 -25.702036454458707 -155.40197263070326 103.20325281636066 -388.47403238947970 -4.6072529647020783e-05 -0.00017224906257889194 -0.00018143368086854508 -364.26738475560455 5.2047066656513152e-10 2.0431323299874293e-10 7.0417141770917624e-06 -0.010491716020148664 -2.7545362723492557e-10 -2.7479172896721195e-10 -4.6635557364957864e-11 -0.010273375656720178 -24.903554063199991 -154.16086777200002 112.24023381839994 89.724962256112903 0.0000000000000000 0.0000000000000000 0.0000000000000000 0.0000000000000000 3.3038101266037576 3.6228228649424725 1.3188181064408537 1.1512067698412418 1242.2619990686212 1242.2568908687829 1.1481647325994933 
-38.583227406804561 -156.94259802640883 105.95203863688917 -38.583227406804561 -156.94259802640872 105.95203863688916 -312.94165094862194 0.00014165081799537936 -0.00012941222136814406 -8.7719556606874284e-05 0.0000000000000000 3.0494913356220040e-06 -3.4532156964719676e-06 8.6130988819977593e-06 -0.011471225237428282 -1.9321879354795891e-09 -4.5579257617047338e-12 -1.4890509158333348e-09 0.0000000000000000 -37.438273663334591 -155.10473791080037 114.93291110338620 89.036758072416930 0.0000000000000000 0.0000000000000000 0.0000000000000000 0.0000000000000000 3.3992499648576606 3.8413094104982508 1.4431571068682565 1.1904833031072930 1291.7149138728232 1291.7179944435709 1.2015663289850240 
-32.490778014520721 -149.01322708815192 111.58860456317505 -32.490778014520735 -149.01322708815189 111.58860456317505 -261.66632879121534 4.0937538914584322e-05 -9.0093954629925571e-05 -4.0417662921783056e-05 0.0000000000000000 6.1803784312530741e-10 1.8668955270584317e-10 6.4462147122412708e-06 -0.010424433057092175 -4.7005845126364593e-10 -1.6075192868263832e-09 8.7106893408331677e-10 0.0000000000000000 -31.542619574254449 -147.87907313389167 119.86135157363466 98.260374494724786 0.0000000000000000 0.0000000000000000 0.0000000000000000 0.0000000000000000 3.3383344920036633 3.7038997515496268 1.3659301589439468 1.1723195178037926 1124.3032367257629 1124.2987102518337 1.1684427025138828 
-29.530547993003509 -144.01791137140347 103.07593642713006 -29.530547993003520 -144.01791137140347 103.07593642713013 -261.59511779867654 4.3064508754031741e-05 -0.00012659240439461905 -7.0449213710680692e-05 0.0000000000000000 5.7549132126410996e-10 1.7293566578757691e-10 7.0507557694554643e-06 -0.0098238717667855861 -2.6330457429147427e-09 -1.0801956375958683e-09 -1.0943673190797603e-10 0.0000000000000000 -28.647655777685479 -142.96738158566356 112.12452093910819 112.69127588814607 0.0000000000000000 0.0000000000000000 0.0000000000000000 0.0000000000000000 3.3532161170426771 3.7384805198903694 1.3860341719830251 1.1732420940381876 1141.0105753084545 1141.0110008245429 1.1773132208093176 
-25.045875762094909 -202.46105797689447 60.827472026113504 -25.045875762094909 -202.46105797689444 60.827472026113504 -1290.4043236122300 1.0438547583855469e-05 1.3131414897298506e-06 6.2808490207446008e-06 -1297.7317590626972 5.1104054321626791e-10 3.3396907461735736e-10 1.0051099529562180e-05 0.0024576728096122481 -2.4511521523965118e-09 -7.6970499194001167e-11 -6.7356225881853621e-10 0.0025932279495089476 -24.261860196399997 -200.43215969199997 73.726546483199982 142.71380061529433 0.0000000000000000 0.0000000000000000 0.0000000000000000 0.0000000000000000 3.2909038965186062 3.6002850364498724 1.3097128496141304 1.1442391189000614 2825.5419123395664 2825.5464457242833 1.1444277918545802 
-24.939058249409616 -189.45016694824653 62.569582254574790 -24.939058249409616 -189.45016694824653 62.569582254574797 -1267.4500544535315 3.3359942044018961e-05 -4.3122096557152998e-05 -1.3932308634683624e-05 -1276.5962462239675 5.0950532681781624e-10 2.9812130541984066e-10 9.9273807236954764e-06 0.0019501702523269503 -1.8280160919165525e-09 -7.6751680405109153e-11 -4.1203879919664373e-10 0.0016448677724243449 -24.157397762799999 -187.63907770800003 75.309882232799993 165.73632395326644 0.0000000000000000 0.0000000000000000 0.0000000000000000 0.0000000000000000 3.2909991625285935 3.6003487984546600 1.3096747229580996 1.1442391189000602 2787.2305955631482 2787.2571450199162 1.1444054092229676 
-35.909066058296602 -197.35474489890515 69.486809485481544 -35.909066058296588 -197.35474489890501 69.486809485481501 -1252.9337431059423 1.6814485191029001e-05 -3.3835967699947088e-05 -6.4584122029623741e-05 0.0000000000000000 6.6716132618438451e-10 3.1989766391404828e-10 9.4361425198030685e-06 0.0010804284659791416 -4.0978710267208057e-09 5.3427158800806917e-09 -9.1203534894961877e-09 0.0000000000000000 -34.885542273181727 -195.41132893576267 81.596679120775832 139.46796289390394 0.0000000000000000 0.0000000000000000 0.0000000000000000 0.0000000000000000 3.2882259616601495 3.5947161005221662 1.3068224157550528 1.1415601924819849 2757.2146927158947 2757.2131720150546 1.1431599826433037 
-19.483989806019586 -196.45810576195890 69.284661790209611 -19.483989806019583 -196.45810576195890 69.284661790209611 -1279.9272145783571 1.7117042284881148e-05 -2.2139983072426929e-05 -3.0448474807781715e-05 0.0000000000000000 4.3111209047097532e-10 3.1744851192172518e-10 9.4504983714216468e-06 0.0038235165123101360 2.9085701896186205e-10 3.7650876378596284e-10 -1.2985938848434976e-09 0.0000000000000000 -18.822600960987238 -194.52970000168264 81.412954998504986 111.95285379220412 0.0000000000000000 0.0000000000000000 0.0000000000000000 0.0000000000000000 3.2914809655449067 3.6014076311320915 1.3102571206181179 1.1442391189000598 2820.6507132450006 2820.6035335393103 1.1446690279229910 
-23.411973882472115 -103.58151291513371 27.282330790721907 -23.411973882472118 -103.58151291513374 27.282330790721911 -1211.6354913711805 -4.0017113551472194e-05 4.9139955361256371e-05 -6.7345999189760025e-05 -1226.2984008374233 4.8755910420084092e-10 6.1495475378592359e-11 1.2433362574171269e-05 0.031913639826566156 4.0935373984818762e-09 -6.8196466526687269e-09 8.7599445295593580e-09 0.033040268680420655 -22.663982073999996 -103.20790935200000 43.238681550399988 69.202643319072678 0.0000000000000000 0.0000000000000000 0.0000000000000000 0.0000000000000000 3.2903292697296709 3.5990417454753998 1.3090418210462180 1.1442391189000602 2691.0855159900680 2691.7206659040698 1.1441369694200263 
-31.068460311134263 -111.27551203143781 31.408456942579900 -31.068460311134270 -111.27551203143777 31.408456942579900 -1176.4184093079250 1.9615232536353380e-06 7.5681016634465895e-05 -9.1056657967917499e-05 -1167.3428081151644 5.9759563963979190e-10 8.2697626524463885e-11 1.2140338984778509e-05 0.027595982457889284 1.7610982752412691e-09 -1.0962833161012154e-08 1.0799425203223769e-08 0.025389880107507350 -30.151660686400003 -110.77310694400001 46.988755992800002 74.715282964229786 0.0000000000000000 0.0000000000000000 0.0000000000000000 0.0000000000000000 3.2917363982061594 3.6019217027715977 1.3105148552064734 1.1442391189000605 2623.6734735517393 2624.7605303963869 1.1447861840001798 
-19.394567606363921 -103.94676641562978 34.730927455158209 -19.394567606363921 -103.94676641562978 34.730927455158216 -1150.4292601197596 -4.9506826197128666e-05 4.0131828391004988e-05 -9.6088252426279659e-05 -1153.3655839665300 4.2982489789622496e-10 6.2507998777050489e-11 1.1904388305339353e-05 0.024420073002633737 6.0468476592775624e-09 -6.5545355001240215e-09 1.1167100670361552e-08 0.024116463459467868 -18.735150314000002 -103.56704831999998 50.008419303199993 79.719497061372692 0.0000000000000000 0.0000000000000000 0.0000000000000000 0.0000000000000000 3.2904615365167733 3.5993028538757055 1.3091703260641514 1.1442391189000587 2581.5253184387611 2581.1544360146077 1.1441900404997798 
-26.303625265210123 -98.780826778826011 35.802399152880938 -26.303625265210137 -98.780826778825968 35.802399152880952 -1167.5457437900600 2.9906161651457624e-06 1.7256003413874329e-05 -0.00014847371067637551 0.0000000000000000 5.2911797165933205e-10 4.8272053021491956e-11 1.1828295992444284e-05 0.028455612098374831 2.9385547686070038e-09 -6.4306759518738122e-09 1.4533964372605057e-08 0.0000000000000000 -25.491879232152165 -98.487589184379729 50.982237960580505 72.292163684038698 0.0000000000000000 0.0000000000000000 0.0000000000000000 0.0000000000000000 3.2902137249708967 3.5988866575788405 1.3090057677191960 1.1442391189000607 2607.9880258067710 2604.8164467414335 1.1441130750898234 
-26.269188650290147 -104.48071629730731 99.307866748760148 -26.269188650290165 -104.48071629730734 99.307866748760219 -243.95720604795943 4.1051735774915459e-05 0.00013570209427945105 -8.2562588491739426e-06 0.0000000000000000 -6.9094474253014269e-07 -3.4872447980092961e-06 1.0036740147978731e-05 -0.0055539182290045876 1.5767347401613277e-09 -7.2043246287273133e-10 -5.5840635634247105e-09 0.0000000000000000 -25.283559732051039 -104.23282252886388 108.75695162467670 96.378087069502698 0.0000000000000000 0.0000000000000000 0.0000000000000000 0.0000000000000000 3.3422389517579671 3.7099527580897420 1.3677962931500425 1.1772710537187601 1068.4053354310190 1068.4057173238286 1.1692596595585341 
-26.944051626535707 -118.50010933278125 101.34558174497745 -26.944051626535718 -118.50010933278134 101.34558174497749 -165.12862781992641 5.0585214326601501e-05 6.6831912248966555e-07 -4.3240785865423977e-05 0.0000000000000000 -1.3202511613090157e-06 -6.1680542333868439e-06 1.0467443429626644e-05 -0.0069162670114756748 1.4546060136544860e-09 -2.8472513029614502e-09 -3.1306744019971669e-09 0.0000000000000000 -25.913646985361510 -118.01095136745833 110.66456878241424 88.846747377876298 0.0000000000000000 0.0000000000000000 0.0000000000000000 0.0000000000000000 3.4371952102457466 3.9208754287961334 1.4848359209755433 1.2051987392337280 1101.9075096789998 1101.9075097679047 1.2188055550609185 
-37.763041495795669 -112.79315266837629 102.91521865510263 -37.763041495795655 -112.79315266837635 102.91521865510265 -172.18840550194781 -5.0700290633083937e-05 5.8352373410674580e-05 3.4360010268599118e-05 0.0000000000000000 -4.0055681037840029e-06 -1.0985067178666834e-05 1.6471003842567390e-05 -0.0059228695028096827 -1.4485376484516500e-09 -1.4018334010308326e-09 6.5017264510986823e-10 0.0000000000000000 -36.236867317722961 -112.72601430119678 112.03758904139967 95.996160021407249 0.0000000000000000 0.0000000000000000 0.0000000000000000 0.0000000000000000 3.4457828949835485 3.9409578242908059 1.4966001592187790 1.2155560775552774 1133.1370833762555 1133.1369411682203 1.2233907799116706 
-34.675721087592329 -105.02745167313182 95.652127753495762 -34.675721087592343 -105.02745167313184 95.652127753495748 -236.43135050364518 2.9520313148116757e-07 0.00015241140725071303 -1.0026424068803778e-05 0.0000000000000000 -3.4144376254082774e-06 -7.7065400299609403e-06 2.1347434400899736e-05 -0.0055949003599937482 1.8739540901939651e-09 -4.7963632554393099e-10 -1.4846269514776044e-09 0.0000000000000000 -33.380789828628046 -105.09637623893835 105.63342596379557 85.433794965156210 0.0000000000000000 0.0000000000000000 0.0000000000000000 0.0000000000000000 3.4123126258988239 3.8620165293157522 1.4502843850094609 1.1954040935657895 1137.2656036632218 1137.2668398990534 1.2042347578736756 
-114.98641883555705 -162.01529489765670 116.87315341681055 -114.98641883555705 -162.01529489765673 116.87315341681052 -694.61017461362690 8.5208720676631671e-06 -2.6565654547996493e-05 -5.9360459576639352e-05 -691.80494506829416 1.8036061533166505e-09 2.2253510145731070e-10 6.0709238454137440e-06 -0.0091288263009504066 1.1793487077894009e-10 -3.4597078687926194e-10 -3.3311967999787746e-10 -0.0091304017793707986 -112.21942232800005 -160.66347960400000 124.66427103520003 147.55923210393107 0.0000000000000000 0.0000000000000000 0.0000000000000000 0.0000000000000000 3.3096636406176665 3.6436084986106319 1.3344866376371647 1.1442391189000622 1824.9519977759267 1824.9509216768963 1.1555120117797961 
-102.01359317921387 -159.40276922216196 107.98353072226055 -102.01359317921383 -159.40276922216202 107.98353072226061 -723.10588157295001 -5.6364713125082583e-05 -4.4966073112483173e-05 -0.00010969075286229601 0.0000000000000000 1.6171624039884591e-09 2.1533375083038209e-10 6.7022349341527843e-06 -0.0099138132921630043 6.5269895358178305e-10 -4.2670855778286093e-10 -2.6569103694934443e-10 0.0000000000000000 -99.532617471171264 -158.09468895943013 116.58484116745363 117.70414803503969 0.0000000000000000 0.0000000000000000 0.0000000000000000 0.0000000000000000 3.2482938268238124 3.4934415052680090 1.2444445421482844 1.1204285604036393 1745.7224756570868 1745.7228349835427 1.1152692029562024 
-106.93197725335992 -150.00574909861638 112.72234148157938 -106.93197725335993 -150.00574909861641 112.72234148157939 -667.43058010766515 -4.6056138976397631e-05 -5.1920865202246881e-05 -4.8371816748011191e-05 0.0000000000000000 1.6878449748958246e-09 1.8942603041693931e-10 6.3657005355821639e-06 -0.0090739809634917887 6.4199725825272763e-10 -5.1799652460644545e-10 -6.9875978859370804e-10 0.0000000000000000 -104.34256255272837 -148.85497981259945 120.89176065121424 119.29379793442074 0.0000000000000000 0.0000000000000000 0.0000000000000000 0.0000000000000000 3.2472481441135548 3.4988804922862475 1.2515327330017110 1.1227623392553687 1653.9160885108333 1653.9164759854295 1.1183718034753587 
-103.03388037556424 -163.66244414161815 116.76702539580640 -103.03388037556428 -163.66244414161801 116.76702539580631 -686.01360028293595 -2.9131359696585840e-05 -6.7125070482704869e-05 -5.4297451591728868e-05 0.0000000000000000 1.6318217888056097e-09 2.2705104463227599e-10 6.0784606930042165e-06 -0.0094830743683033646 6.3826773727407403e-10 -2.8121750833450824e-10 -7.8961927979149538e-10 0.0000000000000000 -100.53040969477119 -162.28305471776312 124.56781543385799 141.51484144144280 0.0000000000000000 0.0000000000000000 0.0000000000000000 0.0000000000000000 3.2513792606709910 3.5119684654199088 1.2605689663814907 1.1243948042330840 1695.9519788561208 1695.9496725018259 1.1225230415364325 
-80.405085671683167 -149.94722759376023 78.125700644467983 -80.405085671683182 -149.94722759376026 78.125700644467983 -761.63806943579050 -0.00013391252303210621 -9.8564692775122615e-05 -4.8038879648346483e-05 -764.27640102130385 1.3066276949302846e-09 1.8927948097768879e-10 8.8226375538624779e-06 -0.0053564873411573125 1.7641673281626617e-09 2.9836488328062566e-09 4.9969126217751335e-10 -0.0054359380846729930 -78.400527573600002 -148.79743798799998 89.448228916799977 108.06316173413846 0.0000000000000000 0.0000000000000000 0.0000000000000000 0.0000000000000000 3.3104961014118808 3.6420640317914272 1.3320380742980613 1.1442391189000618 1947.4923449676050 1947.4923430834133 1.1544301027236303 
-82.193348444769342 -163.91831718696369 76.282493035984061 -82.193348444769327 -163.91831718696363 76.282493035984075 -970.79099318006888 -7.4861714810534643e-05 -0.00016408418372126690 -8.9212356476989392e-05 -979.11718101279632 1.3323238068352339e-09 2.2776824870618381e-10 8.9535359499848255e-06 -0.0022110236822857183 -2.6555000155597105e-09 4.1522584484429841e-09 4.6213538625189261e-11 -0.00099307214811880456 -80.149363288800018 -162.53464431600008 87.773009718400019 109.57810873427631 0.0000000000000000 0.0000000000000000 0.0000000000000000 0.0000000000000000 3.3129481124507389 3.6458300354641300 1.3332452826688372 1.1442391189000611 2313.9716860601252 2313.9716850625337 1.1550260948820303 
-86.432936887762907 -161.52809265278918 84.204702094110104 -86.432936887762921 -161.52809265278930 84.204702094110104 -873.74714294508840 -5.0889439328353773e-05 -0.00011081018988717038 -0.00016227232852305981 0.0000000000000000 1.3932530684712674e-09 2.2119528431119306e-10 8.3909273200788448e-06 -0.0031683790754226089 5.0449073124974890e-09 -1.5634192436015639e-09 2.8921837055346363e-09 0.0000000000000000 -84.295478612813938 -160.18443337667750 94.973195224810283 106.11323630727971 0.0000000000000000 0.0000000000000000 0.0000000000000000 0.0000000000000000 3.2374503727290436 3.4890099770087200 1.2517415535589291 1.1226287275955549 1990.9271894923152 1990.9271941839966 1.1182721164496856 
-88.660583411030473 -152.58408101163963 81.631469469120759 -88.660583411030515 -152.58408101163965 81.631469469120717 -833.53781434228915 -6.0707200368598646e-05 -0.00014468810133723938 -0.00015341596098319502 0.0000000000000000 1.4252716784568520e-09 1.9653856320189789e-10 8.5736696497917802e-06 -0.0046254715623395941 9.8567334958835740e-11 1.9018582944667053e-09 -1.1926720659463178e-10 0.0000000000000000 -86.474010682800568 -151.39014911596544 92.634484883397832 94.367740677547317 0.0000000000000000 0.0000000000000000 0.0000000000000000 0.0000000000000000 3.2636832838074192 3.5443355732950965 1.2809910544420129 1.1275877581405378 1963.4746093772530 1963.4746090294091 1.1318223107120493 
-26.842278623704971 -133.30203559533064 132.25543532718535 -26.842278623704967 -133.30203559533064 132.25543532718532 -373.46352573897559 4.0962246816223931e-05 -3.4853510415235420e-05 0.00016160550721965145 -398.81057605095964 5.3685944578774070e-10 1.4339085474546209e-10 4.9785259470525042e-06 -0.0072868773302372514 -5.6084035501907595e-10 9.9432107451512396e-11 8.9022349046616672e-10 -0.0070781217306846020 -26.018656529999991 -132.43089511199997 138.64462455200004 49.421240865332216 0.0000000000000000 0.0000000000000000 0.0000000000000000 0.0000000000000000 3.2875905670170051 3.5923417806552487 1.3050835368129639 1.1522310560454561 1224.2229533900297 1224.2229688454242 1.1425412330802069 
-33.465086605517293 -134.85393337475145 131.10930342592070 -33.465086605517293 -134.85393337475139 131.10930342592067 -350.48152940260007 -2.4241278601950434e-06 3.1432377482931591e-05 8.2663274854318102e-05 -266.23181156083416 6.3203864364425044e-10 1.4767009837157730e-10 5.0599203760270939e-06 -0.0078231260826238380 -6.7008359841414798e-10 -1.2623655002823007e-09 1.7462817728976625e-10 -0.0065444621110811079 -32.495446914399992 -133.95681332000001 137.60295016000006 48.530522504776933 0.0000000000000000 0.0000000000000000 0.0000000000000000 0.0000000000000000 3.3518949479142304 3.7346507770141968 1.3834413475010836 1.1750275808594457 1302.0449829046704 1302.0449664067708 1.1759911450613769 
-29.295923136316521 -137.37815392012948 134.08783908312427 -29.295923136316514 -137.37815392012951 134.08783908312424 -373.44455631865947 4.4163136508053075e-05 4.1141982987129484e-05 5.1691803229375824e-05 -394.65017179607980 5.7211979598292828e-10 1.5463119673597703e-10 4.8483947807653749e-06 -0.0080444186466577562 1.6956683111480879e-10 -1.2062073342997214e-09 -5.3555576723323640e-10 -0.0081303698592324371 -28.418203856399998 -136.43877710800004 140.31002455199999 44.353383947079159 0.0000000000000000 0.0000000000000000 0.0000000000000000 0.0000000000000000 3.3001819814868578 3.6185158868610743 1.3186027201994759 1.1582425968260122 1248.5669502831774 1248.5668549411710 1.1482669266504995 
-27.608889583510276 -130.32300713079707 137.98096517541660 -27.608889583510287 -130.32300713079709 137.98096517541669 -408.62561703971625 2.5124747956045405e-05 2.9976573016767566e-05 2.7647554106024019e-05 0.0000000000000000 5.4787485659346657e-10 1.3518453023664281e-10 4.5719180867820333e-06 -0.0074397117423128881 -3.7204969190273749e-10 -6.5268233539531088e-10 2.4183598970942038e-10 0.0000000000000000 -26.768365491316434 -129.50173712462359 143.84833436668455 49.139845408488213 0.0000000000000000 0.0000000000000000 0.0000000000000000 0.0000000000000000 3.3065940009425869 3.6367324158938263 1.3306169270363091 1.1591049553070798 1336.6295981608421 1336.6296142667018 1.1534590652340742 
-41.209140083473365 -65.207269884841040 149.09933042867735 -41.209140083473365 -65.207269884841040 149.09933042867732 -618.40725534385808 -1.8183087048730327e-05 -2.3533751956258232e-06 3.8185071948577556e-05 -624.74288329527747 7.4333006416793523e-10 -4.4243941843546963e-11 3.7823291805239023e-06 -0.0065610456243768425 3.9055027762475705e-11 -2.2210835435377084e-10 5.8869011392286066e-10 -0.0066195999207590457 -40.068761925200000 -65.476070995999990 153.95338104800004 156.95717166164070 0.0000000000000000 0.0000000000000000 0.0000000000000000 0.0000000000000000 3.2845952732511212 3.5876241958742905 1.3034034230668465 1.1403724765409240 1645.4682839205880 1645.4682841314052 1.1416852458514908 
-53.845743950618534 -59.287881535753684 143.93950134040406 -53.845743950618534 -59.287881535753705 143.93950134040409 -628.40663289001100 -2.3647122143535804e-05 -4.0916860070663988e-06 2.6466146127201719e-05 -631.91698746483860 9.2493523951020517e-10 -6.0558447145808714e-11 4.1487628905656493e-06 -0.0063190118460261036 -2.0351106622505637e-10 -1.9398511434204725e-10 6.8273560554517761e-10 -0.0063283037664762188 -52.426757905599978 -59.655776269200025 149.26381449600007 118.05125250056595 0.0000000000000000 0.0000000000000000 0.0000000000000000 0.0000000000000000 3.2958540983143938 3.6120186417534019 1.3165685135618475 1.1408365291119940 1683.8137678104395 1683.8137675142182 1.1474628140298544 
-36.202919843800004 -65.770396080182422 139.24766817139758 -36.202919843800018 -65.770396080182422 139.24766817139761 -597.01564692382078 -3.8947864383146453e-06 1.9796807809326235e-06 1.1175200232872308e-08 -596.76728962683126 6.7137928549954040e-10 -4.2698289348663820e-11 4.4819610920399100e-06 -0.0061428231463924211 8.3974427083757671e-11 -1.9931913287434992e-10 6.1102076574546636e-10 -0.0061876495304364152 -35.172917262399999 -66.029770167599992 144.99959110400002 155.12084301790807 0.0000000000000000 0.0000000000000000 0.0000000000000000 0.0000000000000000 3.2930214934602451 3.6041091736012891 1.3114118328364130 1.1433668459597202 1624.6700169487317 1624.6700173128531 1.1451737863438294 
-51.786410756092081 -66.340294495214522 136.17115699293348 -51.786410756092067 -66.340294495214508 136.17115699293348 -609.75711156503337 -2.1981021383597104e-05 1.5506560573301449e-05 1.4884187817726832e-05 0.0000000000000000 8.9533380709383437e-10 -4.1119774252251773e-11 4.7004445562492947e-06 -0.0060450638003024569 1.4722989843643586e-11 -3.7189758188500974e-10 5.9387104511586581e-10 0.0000000000000000 -50.412828244765279 -66.590128188430739 142.20347059834828 136.07757377940416 0.0000000000000000 0.0000000000000000 0.0000000000000000 0.0000000000000000 3.2655796004546445 3.5422259248832351 1.2766436767032019 1.1331805242660244 1591.2071452991831 1591.2071460547857 1.1298242815210029 
-96.928581808984816 -160.03542235537029 65.118910315217292 -96.928581808984816 -160.03542235537026 65.118910315217278 -1164.3066706384413 -3.1500709893215358e-05 -4.8495423496149718e-05 -6.9434428530810486e-05 -1166.1070283767897 1.5440893008644707e-09 2.1705726105381018e-10 9.7463360297922463e-06 -0.0027999190229779027 4.2506505329272941e-10 1.5815744265543195e-10 7.4599522007270133e-10 -0.0026461593727913763 -94.559718839999974 -158.71675115199997 77.626866652000004 109.98746742214213 0.0000000000000000 0.0000000000000000 0.0000000000000000 0.0000000000000000 3.2893198358549420 3.5969530715004243 1.3079644290124297 1.1442391189000582 2605.0441965598397 2605.0441967218790 1.1436504654406949 
-91.941038654642824 -159.78081412593409 70.412886017655353 -91.941038654642838 -159.78081412593411 70.412886017655381 -1072.2231759772517 -0.00011459999871982580 -0.00011076172849955671 -0.00014095549954167228 -1044.5018094417169 1.4724110819486214e-09 2.1636270552960468e-10 9.3703756931517984e-06 -0.0028972636885215911 -3.4437145415405644e-10 9.1706406709357867e-10 -8.4069416007556100e-11 -0.0032751023280365599 -89.682139475999989 -158.46640519600001 82.438353807199988 112.88451412247700 0.0000000000000000 0.0000000000000000 0.0000000000000000 0.0000000000000000 3.2930731829003985 3.6038478943371000 1.3110759161213112 1.1442391189000611 2438.4873820818511 2438.4873819248419 1.1449670356712347 
-105.26247257987080 -156.19847740522206 75.001742827478850 -105.26247257987083 -156.19847740522204 75.001742827478864 -1055.6590259590187 -2.7761846375572855e-05 -2.6776389079318225e-05 -0.00015461619403598294 0.0000000000000000 1.6638490585307866e-09 2.0648305287807034e-10 9.0444905112008200e-06 -0.0036921119446210642 -9.2944381018320235e-11 -5.5341925816366633e-10 2.5096210159399761e-09 0.0000000000000000 -102.70986659571734 -154.94403864466588 86.608986019839278 111.02505284862640 0.0000000000000000 0.0000000000000000 0.0000000000000000 0.0000000000000000 3.2952450459065976 3.6097150453847884 1.3148084028504037 1.1405534863619475 2436.6778013702942 2436.6778007322732 1.1467539826249618 
-102.90775457544495 -168.63657217855950 71.768122482774501 -102.90775457544490 -168.63657217855959 71.768122482774501 -1128.6689038750835 -1.4648476350407538e-05 -3.4645667941623802e-05 -0.00014942250131191957 0.0000000000000000 1.6300103489186315e-09 2.4076096671876717e-10 9.2741313579836060e-06 -0.0028824138560178628 -7.5686464518873607e-10 1.1536373144306305e-10 -1.4227162024244726e-09 0.0000000000000000 -100.40706467681501 -167.17391327890167 83.670075146830683 105.53983917324770 0.0000000000000000 0.0000000000000000 0.0000000000000000 0.0000000000000000 3.2898674658708691 3.5981444896196857 1.3086075242941100 1.1412449095049682 2536.4103534634783 2536.4103535635645 1.1439555550226030 
-117.44527074891019 -100.12153314030917 85.964122883942750 -117.44527074891018 -100.12153314030914 85.964122883942750 -849.00220106876134 -2.5936113480371015e-05 -3.8211194220516979e-05 -0.00011134759782514826 -861.89626304530668 1.8389330110896929e-09 5.1957993463247476e-11 8.2659791758032952e-06 -0.00051789488893389554 7.9371420471474129e-11 -1.2377715118584007e-09 3.3675540144078741e-09 -0.00043438426940050918 -114.62406224400000 -99.805851428000011 96.572263865600007 85.211636250682801 0.0000000000000000 0.0000000000000000 0.0000000000000000 0.0000000000000000 3.2995382424498483 3.6161200338215589 1.3165732238967520 1.1311982633924518 2069.3671565193431 2069.3671871572255 1.1473366474258933 
-113.82904112199316 -91.265061774961595 89.979044116660333 -113.82904112199320 -91.265061774961609 89.979044116660347 -792.37760107842951 -1.0847669614959133e-05 -1.7754194559064452e-06 -0.00011938228277013378 -784.77320621260708 1.7869696833372471e-09 2.7562174764739211e-11 7.9808529775959869e-06 -0.00078123599779863237 -2.2080660482413084e-10 -1.7371453965600415e-09 5.1670779988066647e-09 -0.0013450834612271144 -111.08756211600000 -91.097641973600034 100.22126851279998 99.535403830130534 0.0000000000000000 0.0000000000000000 0.0000000000000000 0.0000000000000000 3.3160033189124909 3.6544836085555779 1.3390081292033202 1.1388971807222106 2002.0467793757127 2002.0468353309145 1.1573661543256455 
-115.68678603638254 -97.934880911124068 98.963415017024133 -115.68678603638251 -97.934880911124068 98.963415017024104 -713.88406170948588 -1.1445732926407365e-05 -8.9796346001394306e-06 -0.00010898089247386413 -712.97416739982498 1.8136723234363217e-09 4.5939252402149577e-11 7.3428131912578473e-06 -0.0035675873398518590 -3.2106091083087842e-10 -1.4085712463597035e-09 1.8110846589379902e-09 -0.0036748446285508485 -112.90434805199999 -97.655804887999992 108.38681131359999 128.09762094244454 0.0000000000000000 0.0000000000000000 0.0000000000000000 0.0000000000000000 3.2948346621615201 3.6112104477782392 1.3168045713468362 1.1392523223903330 1837.3710135087749 1837.3709954079643 1.1475336412101789 
-109.80747916644842 -104.22558700370557 90.340921849718825 -109.80747916644847 -104.22558700370561 90.340921849718868 -779.59964129481034 -0.00012657881730607302 -1.2079834996346840e-05 -0.00012595445901368582 0.0000000000000000 1.7291688081400025e-09 6.3276939243905872e-11 7.9551536344979468e-06 -0.0026766809546344477 3.1163090037817102e-09 -1.1532895134411749e-09 1.9978094787404900e-09 0.0000000000000000 -107.15466629968294 -103.84120130723400 100.55016500991876 102.24201981555134 0.0000000000000000 0.0000000000000000 0.0000000000000000 0.0000000000000000 3.2525773859618137 3.5071319386912863 1.2542170626444220 1.1193514717863811 1848.8011832488407 1848.8011469111386 1.1196695401768162 
-27.835472679287292 -115.80586708523323 93.110093822255820 -27.835472679287285 -115.80586708523330 93.110093822255777 -210.51898629577869 8.9233506866745506e-05 3.2142841591735522e-05 -0.00011476528741247953 0.0000000000000000 -2.5560945390829493e-06 -5.8908369012256313e-06 1.5636307892607308e-05 -0.0075862282628461498 2.2042505230827662e-11 -2.5639156927722698e-09 -2.1760090065992783e-09 0.0000000000000000 -26.889884864405381 -115.37486796036181 103.37575244326078 96.382960025775517 0.0000000000000000 0.0000000000000000 0.0000000000000000 0.0000000000000000 3.3935069529234281 3.8246963323990246 1.4319831183467502 1.1953060668169051 1096.1604038242940 1096.1599019803843 1.1965990342069712 
-112.27556256501515 -104.00242318269440 147.16731720456556 -112.27556256501519 -104.00242318269441 147.16731720456556 -633.94876570985980 2.1237343430999023e-06 7.1227415676790563e-06 8.6541713383766509e-07 -636.94276704824711 1.7646488714717634e-09 6.2665428401942323e-11 3.9195342651510146e-06 -0.0075183460965441281 -4.2444500919960406e-11 -2.8127686907045015e-10 2.2440824275997411e-10 -0.0074810393806747470 -109.56833416800004 -103.62177336400003 152.19744990400002 70.302883591683823 0.0000000000000000 0.0000000000000000 0.0000000000000000 0.0000000000000000 3.2807206087315652 3.5765967420304112 1.2960860467960562 1.1388536852460731 1663.9400044635984 1663.9400273624053 1.1384885199112245 