# For a description of the Tecplot format see the Tecplot User's guide.
#
Variables=x,y,z,s_u,s_v,s_w,s_p,mono_f_vel_u,mono_f_vel_v,mono_f_vel_w,const,u_nu,v_nu,w_nu,p_nu,x_nu,y_nu,z_nu,const,u_ref,v_ref,w_ref,vol_ref,x_ref,y_ref,z_ref,const,I1,I2,I3,J,p1,p2,p3
Zone f=fepoint, n=3174, e=16683, et=brick, c=black
-25.0354 -154.367 110.837 -25.035410997654601 -154.36674463959437 110.83697664712919 -134.00061208483592 -8.2920838330148535e-06 -3.5046239232956195e-05 -3.5119591887517406e-05 -131.17441112892567 4.2744210948519887e-12 2.2193635818013036e-12 1.3250179176083066e-08 -0.00059319226543555709 4.6989093436412803e-12 2.0905977316671450e-11 -7.5764128223627907e-12 -0.00058966009275161996 -24.903554063199991 -154.16086777200002 112.24023381839994 89.724962256112903 0.0000000000000000 0.0000000000000000 0.0000000000000000 0.0000000000000000 3.0459416604021858 3.0922266398915905 1.0462836952174197 1.0237404828422043 325.43666035012205 325.44415017264055 1.0228756098561997 
-37.636823530651952 -155.41979699793634 113.54037507022265 -37.636823530651974 -155.41979699793634 113.54037507022261 -117.94917700426126 2.7978015599181325e-05 -3.1697787203750900e-05 -1.8487993255129055e-05 0.0000000000000000 5.7420183704953190e-09 1.8095167835306191e-08 -3.2590026938071226e-08 -0.00061251315821318135 -4.8278871078045364e-11 5.1456169558197311e-11 -2.8935237469456830e-11 0.0000000000000000 -37.438273663334591 -155.10473791080037 114.93291110338620 89.036758072416930 0.0000000000000000 0.0000000000000000 0.0000000000000000 0.0000000000000000 3.0651604318146801 3.1314977165606157 1.0663423991696341 1.0308766078293430 337.31274413798752 337.30453696749993 1.0326471691806416 
-31.699193177729537 -148.06720877918826 118.57676421355090 -31.699193177729519 -148.06720877918818 118.57676421355096 -107.05831028835809 9.4006949881667711e-06 -2.3285589871245234e-05 -4.1768448739583441e-06 0.0000000000000000 5.0731710499185567e-12 2.0385637622410968e-12 1.2129651505432548e-08 -0.00060020399916567099 -1.3183207877973413e-11 8.3092219518536471e-12 -6.6353400986073596e-13 0.0000000000000000 -31.542619574254449 -147.87907313389167 119.86135157363466 98.260374494724786 0.0000000000000000 0.0000000000000000 0.0000000000000000 0.0000000000000000 3.0539359716383259 3.1085954212898437 1.0546609097885904 1.0278196605832803 301.88653871962566 301.95587645060527 1.0269561336634394 
-28.793451680312895 -143.14164549260590 110.71946198154072 -28.793451680312874 -143.14164549260582 110.71946198154077 -105.50518862609262 1.1738670682921702e-05 -2.7794995144824867e-05 -1.9584408977520365e-05 0.0000000000000000 4.7238254974324434e-12 1.8666457268778913e-12 1.3267194010069263e-08 -0.00061212869220224635 -6.7617556970419310e-11 5.9460198183680625e-12 -1.6756542722501093e-11 0.0000000000000000 -28.647655777685479 -142.96738158566356 112.12452093910819 112.69127588814607 0.0000000000000000 0.0000000000000000 0.0000000000000000 0.0000000000000000 3.0569488665426534 3.1147881357528990 1.0578430460556634 1.0279650258583590 303.04748712054521 303.03509305230267 1.0285145592291374 
-24.391328159862869 -200.76871725249347 71.723585679079946 -24.391328159862869 -200.76871725249345 71.723585679079960 -294.20557062233979 1.0183935366800026e-06 2.2310486856208629e-08 7.9195100339285529e-07 -295.37383650864439 4.1960809826768752e-12 3.6165792582920631e-12 1.8912855281882912e-08 -0.00058474584221184433 -2.4213459662224137e-13 -4.0337090439102226e-15 -7.4521550326332968e-14 -0.00058470526613085599 -24.261860196399997 -200.43215969199997 73.726546483199982 142.71380061529433 0.0000000000000000 0.0000000000000000 0.0000000000000000 0.0000000000000000 3.0445550535168766 3.0895656647128402 1.0450119429933216 1.0222309489449808 606.89362649270072 606.89329780802973 1.0222582880989419 
-24.286476821620781 -187.93950468409412 73.331575837716187 -24.286476821620784 -187.93950468409412 73.331575837716187 -290.27569124382705 4.8305397620414307e-06 -6.9029629319376698e-06 -2.1319153118863531e-06 -291.53844985992998 4.1822031948690608e-12 3.2308877795372837e-12 1.8680059277187407e-08 -0.00058481322797858002 -4.0603941752742213e-13 1.4332442692268212e-13 1.9605226798786450e-14 -0.00058477456733394592 -24.157397762799999 -187.63907770800003 75.309882232799993 165.73632395326644 0.0000000000000000 0.0000000000000000 0.0000000000000000 0.0000000000000000 3.0445574405095646 3.0895674393215984 1.0450113049938303 1.0222309489449790 600.33181599756801 600.33600945713340 1.0222578261026540 
-35.054561289911554 -195.73370652386006 79.716265583882745 -35.054561289911568 -195.73370652385992 79.716265583882759 -288.37503937597677 1.7908090538085001e-06 -5.4151935999661322e-06 -1.0975057417880327e-05 0.0000000000000000 5.4747387179254758e-12 3.4705849305538550e-12 1.7755702685917640e-08 -0.00058506654108219898 -2.5837566844294043e-13 2.1086253685267806e-13 2.1257518480146364e-13 0.0000000000000000 -34.885542273181727 -195.41132893576267 81.596679120775832 139.46796289390394 0.0000000000000000 0.0000000000000000 0.0000000000000000 0.0000000000000000 3.0441730609482809 3.0887971811961008 1.0446254546826454 1.0218300631427297 596.26551915532048 596.25517119247411 1.0220690753561081 
-18.931819030844689 -194.84958766837957 79.529680659876306 -18.931819030844686 -194.84958766837948 79.529680659876263 -292.15069882165432 2.4141651826717151e-06 -3.3730868827614284e-06 -5.1060419756308475e-06 0.0000000000000000 3.5407995979674918e-12 3.4431624218456140e-12 1.7782723293890967e-08 -0.00058453986832197435 -3.2420622016850992e-13 9.8974374819088189e-14 -1.4145524912512548e-13 0.0000000000000000 -18.822600960987238 -194.52970000168264 81.412954998504986 111.95285379220412 0.0000000000000000 0.0000000000000000 0.0000000000000000 0.0000000000000000 3.0446349180600270 3.0897247342939238 1.0450911428645078 1.0222309489449812 605.64277166535237 605.64628213203309 1.0222971125161786 
-22.787501274851525 -103.26988343159586 40.760988654312541 -22.787501274851529 -103.26988343159586 40.760988654312541 -292.40686965637434 -7.6665929710624149e-06 8.7410190422274962e-06 -1.1849663822538767e-05 -294.70512810390011 4.0016948088528181e-12 6.7271188619599798e-13 2.3395489101574188e-08 -0.00057573099269371943 -1.2810004100579000e-12 1.5970228610818518e-12 -2.0861897881731169e-12 -0.00057594933712813267 -22.663982073999996 -103.20790935200000 43.238681550399988 69.202643319072678 0.0000000000000000 0.0000000000000000 0.0000000000000000 0.0000000000000000 3.0444677416569408 3.0893888499696667 1.0449224308598026 1.0222309489449790 604.26610983160037 604.24600775901661 1.0222145681640329 
-30.303055869750295 -110.85644686885799 44.569456188160501 -30.303055869750306 -110.85644686885801 44.569456188160508 -285.95107969153236 6.2240615424294562e-07 1.3946692133556346e-05 -1.6030511960311856e-05 -283.56079333882928 4.9042228611462235e-12 8.9137031089592256e-13 2.2844115488140915e-08 -0.00057457571104427589 -4.9951588720772032e-14 2.6464460292061953e-12 -3.1055882648420614e-12 -0.00057436750576653217 -30.151660686400003 -110.77310694400001 46.988755992800002 74.715282964229786 0.0000000000000000 0.0000000000000000 0.0000000000000000 0.0000000000000000 3.0446952829231226 3.0898459183781468 1.0451519606205475 1.0222309489449792 592.00708246492172 591.95658953549457 1.0223270147229224 
-18.844042812631560 -103.63003669003898 47.636139225377811 -18.844042812631560 -103.63003669003895 47.636139225377811 -281.16269019277627 -9.3077508891330114e-06 7.2096248759046457e-06 -1.7126305429597854e-05 -281.56721608024839 3.5282540777892279e-12 6.8403616104717457e-13 2.2400129751076747e-08 -0.00057388640353096202 -1.7630673185540858e-12 1.7261192009049724e-12 -2.8046221199603446e-12 -0.00057361606659446756 -18.735150314000002 -103.56704831999998 50.008419303199993 79.719497061372692 0.0000000000000000 0.0000000000000000 0.0000000000000000 0.0000000000000000 3.0444859761799417 3.0894252418498875 1.0449405869423298 1.0222309489449797 584.19345237371169 584.17638858286011 1.0222233502766003 
-25.625926450533505 -98.536232002093442 48.625121390253327 -25.625926450533491 -98.536232002093442 48.625121390253305 -284.78266911777405 1.0662864999175021e-07 3.4724406489005934e-06 -2.6304190324234780e-05 0.0000000000000000 4.3434769669836726e-12 5.2871595990211517e-13 2.2256949172572152e-08 -0.00057493448383188139 -4.7559846967875282e-13 1.5161894690420993e-12 -3.6091648407401423e-12 0.0000000000000000 -25.491879232152165 -98.487589184379729 50.982237960580505 72.292163684038698 0.0000000000000000 0.0000000000000000 0.0000000000000000 0.0000000000000000 3.0444426334574213 3.0893402299253840 1.0448989308844607 1.0222309489449795 589.79774255900645 589.89955646584906 1.0222028504765104 
-25.455376774661197 -104.26386942872234 107.28667610801627 -25.455376774661200 -104.26386942872237 107.28667610801629 -105.48866114159321 8.8938435495184593e-06 3.0078421494072611e-05 -6.5818198461838227e-06 0.0000000000000000 -1.8725554554763255e-09 -2.0586046209496819e-08 -5.7587252712719567e-08 -0.00056509659769624629 3.9340115990064242e-11 -9.1165106399044342e-13 -1.5103666108178640e-10 0.0000000000000000 -25.283559732051039 -104.23282252886388 108.75695162467670 96.378087069502698 0.0000000000000000 0.0000000000000000 0.0000000000000000 0.0000000000000000 3.0541054955442770 3.1088140223482656 1.0547071454672556 1.0286249857697425 293.49741139133323 293.49754895241114 1.0269772500577152 
-26.094700662757447 -118.07745062163879 109.21421319681451 -26.094700662757429 -118.07745062163885 109.21421319681444 -83.637589222774153 1.5359554171700567e-05 4.0199078424001389e-06 -1.1930690462956557e-05 0.0000000000000000 1.1282101975606813e-08 -6.4517670898224803e-08 -9.9071273095677889e-08 -0.00058211174277691198 4.2731119775428068e-11 -6.1889640192086969e-11 -1.0761476247255536e-10 0.0000000000000000 -25.913646985361510 -118.01095136745833 110.66456878241424 88.846747377876298 0.0000000000000000 0.0000000000000000 0.0000000000000000 0.0000000000000000 3.0744103955194637 3.1502136470747355 1.0758088503339360 1.0344805394423477 295.18441436733315 295.18468787645662 1.0372247911062227 
-36.513298108724150 -112.70496799407570 110.62500310843902 -36.513298108724157 -112.70496799407566 110.62500310843906 -85.099160600525835 -7.8023368405746225e-06 2.0858612289820312e-05 1.3648555253807992e-05 0.0000000000000000 -1.6379255475873310e-08 -9.0318253320479448e-08 -1.2910251637698091e-07 -0.00055726685619726483 -2.7683642709768888e-11 -1.0221296156471793e-11 2.0260157086105757e-11 0.0000000000000000 -36.236867317722961 -112.72601430119678 112.03758904139967 95.996160021407249 0.0000000000000000 0.0000000000000000 0.0000000000000000 0.0000000000000000 3.0767988559913384 3.1551004531932132 1.0783089687860892 1.0366381174437485 302.60755934506057 302.60768512909380 1.0384185590341735 
-33.612791789705206 -105.05728101531649 104.07076562303695 -33.612791789705192 -105.05728101531653 104.07076562303699 -104.71239719889584 9.9659604260562428e-07 3.4703046873023024e-05 -1.0813485375021247e-05 0.0000000000000000 -8.3095086481479601e-09 -4.9310660577311215e-08 -1.0224654547916648e-07 -0.00057768694849725339 3.9734910016486497e-11 5.9270629560725898e-12 -9.3001953656680166e-11 0.0000000000000000 -33.380789828628046 -105.09637623893835 105.63342596379557 85.433794965156210 0.0000000000000000 0.0000000000000000 0.0000000000000000 0.0000000000000000 3.0666859696322271 3.1343365484366967 1.0676516501277649 1.0317976953212191 309.77863685658923 309.77889043740282 1.0332701857200417 
-112.67634871877232 -160.88772133206402 123.45447080791702 -112.67634871877227 -160.88772133206405 123.45447080791702 -202.76598690516047 1.2033894669417618e-06 -3.8151675021997884e-06 -1.0294713665738910e-05 -202.24880496340839 1.4800723147079253e-11 2.4259760866840452e-12 1.1423481716121840e-08 -0.00056296629669837347 5.3868325138187210e-13 -1.5124269903996529e-12 -7.4889036440381283e-12 -0.00056233011935954112 -112.21942232800005 -160.66347960400000 124.66427103520003 147.55923210393107 0.0000000000000000 0.0000000000000000 0.0000000000000000 0.0000000000000000 3.0483713789661819 3.0973665774965506 1.0489974587697224 1.0222309489449786 455.59728748125934 455.59719881400480 1.0242166298946487 
-99.942311980280138 -158.31167583621561 115.24923466769226 -99.942311980280138 -158.31167583621570 115.24923466769225 -207.14900408921349 -9.5219286613422910e-06 -6.7257377591030298e-06 -2.0127416082732710e-05 0.0000000000000000 1.3282049071694502e-11 2.3428203821396210e-12 1.2611396371653427e-08 -0.00056906209307799210 3.1531582491987036e-12 2.7408732181129464e-12 -2.6818208929016002e-12 0.0000000000000000 -99.532617471171264 -158.09468895943013 116.58484116745363 117.70414803503969 0.0000000000000000 0.0000000000000000 0.0000000000000000 0.0000000000000000 3.0349651210763162 3.0697500060973471 1.0347815434862582 1.0181735622321708 435.18582682186928 435.18566446753346 1.0172332338426455 
-104.77016407305582 -149.04587164117265 119.62321797835482 -104.77016407305580 -149.04587164117265 119.62321797835479 -198.41583495884879 -8.2773119243499059e-06 -7.3642082662474538e-06 -9.4493169359757773e-06 0.0000000000000000 1.3855534775064626e-11 2.0460577676573162e-12 1.1978148251046150e-08 -0.00056449761369722668 5.7030143619027134e-12 -2.8787567433106250e-12 -5.4596549320411198e-12 0.0000000000000000 -104.34256255272837 -148.85497981259945 120.89176065121424 119.29379793442074 0.0000000000000000 0.0000000000000000 0.0000000000000000 0.0000000000000000 3.0356969452706242 3.0714420201794415 1.0357445089025044 1.0184594458071117 421.72362739244329 421.72369381395094 1.0177039976957305 
-100.94381889838060 -162.51187049572479 123.35651327885701 -100.94381889838057 -162.51187049572488 123.35651327885707 -200.57641777421111 -5.5333007949681199e-06 -1.0520928756072459e-05 -9.2475104404389839e-06 0.0000000000000000 1.3396679598987051e-11 2.4590607328178749e-12 1.1437657043700256e-08 -0.00056455868260458825 4.6213039065753636e-12 -4.6487714826989844e-13 -7.5458986081749614e-12 0.0000000000000000 -100.53040969477119 -162.28305471776312 124.56781543385799 141.51484144144280 0.0000000000000000 0.0000000000000000 0.0000000000000000 0.0000000000000000 3.0367450736700330 3.0736734188587467 1.0369280900292921 1.0187657171716196 427.33134848645210 427.33138304116858 1.0182887077044038 
-78.731549132300557 -148.98816730532286 87.690073290326893 -78.731549132300543 -148.98816730532283 87.690073290326865 -210.72536581492631 -2.3833574126743590e-05 -1.6473084266962545e-05 -8.0409901883022401e-06 -210.70393367842874 1.0732088828735442e-11 2.0447255000277664e-12 1.6601295893536872e-08 -0.00058390648114993785 6.6157693350959084e-12 -9.0517091100437555e-13 1.7089051273383593e-12 -0.00058734086054411188 -78.400527573600002 -148.79743798799998 89.448228916799977 108.06316173413846 0.0000000000000000 0.0000000000000000 0.0000000000000000 0.0000000000000000 3.0475363776965674 3.0956004633344061 1.0480660401291391 1.0222309489449801 468.29060093742288 468.28633190380424 1.0237581833044032 
-80.486895612226689 -162.76417064042923 85.988768948991734 -80.486895612226675 -162.76417064042923 85.988768948991734 -247.54982101245687 -1.4030523031335525e-05 -2.6555743870166571e-05 -1.4729839105094326e-05 -248.75519419724958 1.0935703731451694e-11 2.4729940317769206e-12 1.6847600203817589e-08 -0.00058166799572537792 4.5480604996037641e-12 5.3933952549418784e-13 2.7242701788706848e-12 -0.00058190302706830565 -80.149363288800018 -162.53464431600008 87.773009718400019 109.57810873427631 0.0000000000000000 0.0000000000000000 0.0000000000000000 0.0000000000000000 3.0480505485600156 3.0965995305733491 1.0485504770395129 1.0222309489449801 533.86389441318897 533.88764862534197 1.0239981194720469 
-84.648446566453032 -160.40732216882114 93.301069853956307 -84.648446566453018 -160.40732216882125 93.301069853956349 -230.92022059628610 -1.0495615529671848e-05 -1.8419854362431633e-05 -2.7437278127694674e-05 0.0000000000000000 1.1439633962329054e-11 2.3936685966674531e-12 1.5788952367756792e-08 -0.00058190761754121098 1.6887919394544810e-12 1.7883347906137692e-12 -1.4140518680324906e-12 0.0000000000000000 -84.295478612813938 -160.18443337667750 94.973195224810283 106.11323630727971 0.0000000000000000 0.0000000000000000 0.0000000000000000 0.0000000000000000 3.0359588662877299 3.0722355959744854 1.0362772466463808 1.0187904677967046 477.08223519279949 477.08322651480563 1.0179634050922914 
-86.835089123681357 -151.58820084147342 90.925943028302342 -86.835089123681371 -151.58820084147337 90.925943028302314 -224.45167819310441 -1.1725190976809594e-05 -2.3889167421298360e-05 -2.6568424048618993e-05 0.0000000000000000 1.1705032776365696e-11 2.1435908603706370e-12 1.6132815083835794e-08 -0.00058283250206988310 -2.7724132819960060e-14 5.0164199747753483e-12 -5.6498494529129810e-13 0.0000000000000000 -86.474010682800568 -151.39014911596544 92.634484883397832 94.367740677547317 0.0000000000000000 0.0000000000000000 0.0000000000000000 0.0000000000000000 3.0404431976694486 3.0812950480316768 1.0408531849658258 1.0195674485257424 473.47150736331668 473.46576451192408 1.0202218520929085 
-26.154664894885581 -132.57540157548303 137.65251495297528 -26.154664894885574 -132.57540157548303 137.65251495297528 -134.27403168580443 9.1968311151755095e-06 -7.9764676149538872e-06 3.6472326693940677e-05 -140.18606191539169 4.4081335803802801e-12 1.5601131497788858e-12 9.3679402013435720e-09 -0.00054521030974683307 -1.1184391409350016e-11 2.6673969406773586e-12 -5.2484359212303577e-12 -0.00053929253297264998 -26.018656529999991 -132.43089511199997 138.64462455200004 49.421240865332216 0.0000000000000000 0.0000000000000000 0.0000000000000000 0.0000000000000000 3.0440357080971912 3.0885058944607526 1.0444716969209886 1.0239337405177484 327.07615138018389 327.07183861052715 1.0220006317261383 
-32.655567811987602 -134.10562932489532 136.59462045949056 -32.655567811987595 -134.10562932489532 136.59462045949064 -129.65170568788105 -1.3319247665708976e-06 5.2585591627128314e-06 2.2131917898240145e-05 -114.42352621231161 5.1863860428547071e-12 1.6096290966771676e-12 9.5210954675906123e-09 -0.00055459469129039011 -1.0168625039918211e-11 -1.4440978436501146e-11 -3.0340006771821497e-11 -0.00053451222020820660 -32.495446914399992 -133.95681332000001 137.60295016000006 48.530522504776933 0.0000000000000000 0.0000000000000000 0.0000000000000000 0.0000000000000000 3.0567544740213655 3.1143024005536550 1.0575507260080057 1.0284080623476008 346.17171329069873 346.15960216593447 1.0283586081205309 
-28.563145529289066 -136.59460274530684 139.34384719938564 -28.563145529289059 -136.59460274530687 139.34384719938564 -135.65682461261838 1.1599060948852673e-05 6.0113551189284292e-06 1.1422256368918338e-05 -141.41938447396223 4.6953899102142316e-12 1.6817935932778030e-12 9.1230685228538277e-09 -0.00054806511572809034 -9.6630535346915305e-12 -1.4989709833144831e-12 -1.5296714810675766e-11 -0.00054467148536303898 -28.418203856399998 -136.43877710800004 140.31002455199999 44.353383947079159 0.0000000000000000 0.0000000000000000 0.0000000000000000 0.0000000000000000 3.0468644725046934 3.0941901490250978 1.0473267592729452 1.0253191019255379 336.61690835447860 336.67517878767001 1.0233851345722671 
-26.907164958086401 -129.63797097717409 142.93725267997064 -26.907164958086401 -129.63797097717409 142.93725267997067 -142.74849368714547 3.9022841414831746e-06 4.8462795602014897e-06 7.5764849579387418e-06 0.0000000000000000 4.4993800352166602e-12 1.4630241462754157e-12 8.6028477674915393e-09 -0.00054186539923624854 -4.4577393733286408e-12 -1.6501205722962893e-12 -6.4479688996408766e-12 0.0000000000000000 -26.768365491316434 -129.50173712462359 143.84833436668455 49.139845408488213 0.0000000000000000 0.0000000000000000 0.0000000000000000 0.0000000000000000 3.0477932873432905 3.0961866403886216 1.0483953019977432 1.0253568897860761 352.99680599214838 352.99249686746867 1.0239080901869970 
-40.257077622221054 -65.431481749262915 153.19964688171828 -40.257077622221047 -65.431481749262929 153.19964688171828 -189.16203912585539 -4.3049124837541106e-06 -1.0068455492624621e-07 6.9357149850611718e-06 -190.39007975570669 6.1007379703603704e-12 -4.8624992921020294e-13 7.1171002424819108e-09 -0.00054128226056533442 -7.6121284598223319e-13 5.1487401658594658e-13 -2.0560080351266638e-13 -0.00054100042377144039 -40.068761925200000 -65.476070995999990 153.95338104800004 156.95717166164070 0.0000000000000000 0.0000000000000000 0.0000000000000000 0.0000000000000000 3.0432170271202974 3.0868857091044144 1.0436702408022460 1.0215131168164013 421.19116865171202 421.22023590382707 1.0216023917117494 
-52.661081357160491 -59.594749181282914 148.43705823569633 -52.661081357160477 -59.594749181282928 148.43705823569638 -191.57082765753270 -4.2934020517796940e-06 -1.1686639827179349e-06 5.6099747856004972e-06 -192.12744972521432 7.5932662935151979e-12 -6.5608629640223636e-13 7.8066073605498332e-09 -0.00054255869215591077 -5.3820223856142565e-13 7.1914529594973076e-13 -1.6370969564121714e-12 -0.00054238015448409952 -52.426757905599978 -59.655776269200025 149.26381449600007 118.05125250056595 0.0000000000000000 0.0000000000000000 0.0000000000000000 0.0000000000000000 3.0455898962033530 3.0916911758658587 1.0461029707238809 1.0216398045403581 430.46345802944421 430.34294432470784 1.0227931974068523 
-35.343006151460713 -65.986744693742395 144.10643584540759 -35.343006151460713 -65.986744693742381 144.10643584540756 -184.72745262270854 -1.4043928982929621e-06 8.0150816936817755e-07 6.2417736464039888e-07 -184.63471106708036 5.5093499207181651e-12 -4.5671799675517377e-13 8.4335609606966955e-09 -0.00054173550788082843 -1.0246051993212121e-12 1.4721770346914500e-12 -2.9320288478717832e-12 -0.00054084488457496836 -35.172917262399999 -66.029770167599992 144.99959110400002 155.12084301790807 0.0000000000000000 0.0000000000000000 0.0000000000000000 0.0000000000000000 3.0451244075162411 3.0906967629819020 1.0455736796287634 1.0221530013229190 417.99803060334398 417.88616482993524 1.0225332418856632 
-50.639654009674778 -66.548685293563139 141.26677643862362 -50.639654009674793 -66.548685293563111 141.26677643862365 -187.74648704416902 -4.4007351970136734e-06 2.1628312270094615e-06 3.5346953601140499e-06 0.0000000000000000 7.3498498953661340e-12 -4.4653170050423796e-13 8.8446858725887978e-09 -0.00054343149754734678 -1.2679678286888685e-12 8.9072999450795036e-13 -2.8038794301111951e-12 0.0000000000000000 -50.412828244765279 -66.590128188430739 142.20347059834828 136.07757377940416 0.0000000000000000 0.0000000000000000 0.0000000000000000 0.0000000000000000 3.0397611560881281 3.0797611171631352 1.0399996597547405 1.0203244468380459 411.56735291104638 411.56175567562536 1.0198013987727881 
-94.950899675861635 -158.93549487444460 75.684638442870067 -94.950899675861606 -158.93549487444463 75.684638442870082 -282.76573822991816 -5.8309121899836318e-06 -7.7337857791125408e-06 -1.1329791250267565e-05 -282.74448679786525 1.2680419214650128e-11 2.3425428263834647e-12 1.8339387786170391e-08 -0.00057856537302135758 -8.1693896737227542e-13 9.4081684775165062e-13 -3.1369535376442466e-13 -0.00057814217032415855 -94.559718839999974 -158.71675115199997 77.626866652000004 109.98746742214213 0.0000000000000000 0.0000000000000000 0.0000000000000000 0.0000000000000000 3.0442942766152319 3.0890397114961559 1.0447467624436340 1.0222309489449790 586.84140844998717 588.73112713040223 1.0221281653055885 
-90.055161504035397 -158.68444188430666 80.571046139987232 -90.055161504035382 -158.68444188430664 80.571046139987203 -266.54639748380930 -2.0856839764588954e-05 -1.8063135913944585e-05 -2.3381758612525718e-05 -260.98538760247942 1.2081786959772243e-11 2.3371027335628014e-12 1.7631953674879242e-08 -0.00057902184113010945 1.0249560869628890e-12 2.0692802859850724e-12 1.9487366239721797e-12 -0.00057891896198515342 -89.682139475999989 -158.46640519600001 82.438353807199988 112.88451412247700 0.0000000000000000 0.0000000000000000 0.0000000000000000 0.0000000000000000 3.0447714623911417 3.0899777911179531 1.0452075340815556 1.0222309489449788 557.49833597662393 557.03859219467563 1.0223524939118813 
-103.13138972963438 -155.15212736561585 84.806620025633023 -103.13138972963439 -155.15212736561585 84.806620025633023 -264.51674525581114 -4.7917986686645450e-06 -4.1187568363552583e-06 -2.6717768644403557e-05 0.0000000000000000 1.3654362363002550e-11 2.2532808952036025e-12 1.7018749076669337e-08 -0.00057907254060538883 -2.0738409850704703e-13 1.9225424804470225e-12 -1.7396288585375794e-12 0.0000000000000000 -102.70986659571734 -154.94403864466588 86.608986019839278 111.02505284862640 0.0000000000000000 0.0000000000000000 0.0000000000000000 0.0000000000000000 3.0453396812811868 3.0911559107089537 1.0458175949922757 1.0216424170421292 558.89712631121211 558.51850456188924 1.0226551534238808 
-100.82001467754722 -167.41654195810557 81.821946836702224 -100.82001467754721 -167.41654195810557 81.821946836702224 -276.64977799323356 -2.8939836855567346e-06 -5.2254958458499089e-06 -2.5465046879849768e-05 0.0000000000000000 1.3388241903999898e-11 2.6176560918855785e-12 1.7450857647816065e-08 -0.00057810244081909796 1.8506602323270753e-13 3.5505808026042002e-13 1.5688956570359198e-13 0.0000000000000000 -100.40706467681501 -167.17391327890167 83.670075146830683 105.53983917324770 0.0000000000000000 0.0000000000000000 0.0000000000000000 0.0000000000000000 3.0444429834771682 3.0893411996630058 1.0448995498777049 1.0217584278894485 575.23940593894815 576.54824188667976 1.0222036808367039 
-115.08994090204821 -99.858217319271233 94.925037883493516 -115.08994090204823 -99.858217319271247 94.925037883493516 -231.43287243132988 -4.4337762583384141e-06 -6.0092473484665138e-06 -1.9112888074086785e-05 -233.68543174666669 1.5099483722466805e-11 5.6768478806645807e-13 1.5553852428240592e-08 -0.00057892024087580359 -1.6683148290680302e-12 -2.0654306839402925e-12 -7.5571478484595126e-12 -0.00057908102537857452 -114.62406224400000 -99.805851428000011 96.572263865600007 85.211636250682801 0.0000000000000000 0.0000000000000000 0.0000000000000000 0.0000000000000000 3.0454663737579368 3.0913089312879904 1.0458420826083670 1.0199894214635785 499.40329713865600 499.41943862754664 1.0226606045181883 
-111.54027468869944 -91.125413893140802 98.630861845971324 -111.54027468869943 -91.125413893140816 98.630861845971353 -221.59457807095447 -2.0363717373346360e-06 -2.8373621490498885e-07 -2.1032649745594226e-05 -220.20322669032205 1.4673547099608442e-11 3.0195290712242695e-13 1.5017332266609177e-08 -0.00057567577612055866 -2.0104379108984487e-13 1.7002941298407470e-12 -9.4017778065803622e-12 -0.00057405641594099929 -111.08756211600000 -91.097641973600034 100.22126851279998 99.535403830130534 0.0000000000000000 0.0000000000000000 0.0000000000000000 0.0000000000000000 3.0491910448006321 3.0989736033331026 1.0497849318448205 1.0214316521087163 489.63486549529642 489.64358648997103 1.0245978435870478 
-113.36382436224449 -97.702098556950361 106.92355179939801 -113.36382436224449 -97.702098556950375 106.92355179939797 -208.23419117607747 -1.8552742245327172e-06 -1.0844084295875331e-06 -1.8025704982541116e-05 -207.95595347936072 1.4892316546610829e-11 5.0096038428648626e-13 1.3816753519080292e-08 -0.00056983449707133870 -2.4598509067553304e-12 -4.7490275673384203e-12 -1.0229386961075116e-11 -0.00056993669202228729 -112.90434805199999 -97.655804887999992 108.38681131359999 128.09762094244454 0.0000000000000000 0.0000000000000000 0.0000000000000000 0.0000000000000000 3.0454710660076780 3.0914863529098828 1.0460170559507758 1.0213771978236725 460.18431629612684 460.18187401877373 1.0227502480924022 
-107.59273704003080 -103.90496394790274 98.964879650287656 -107.59273704003087 -103.90496394790274 98.964879650287614 -219.21498735703830 -2.0540136272965880e-05 -1.8940509990847408e-06 -2.2453964109540551e-05 0.0000000000000000 1.4199592890395962e-11 6.8248184881269935e-13 1.4968974504370181e-08 -0.00057786859207985578 1.2850988841723451e-12 -4.1516328522802920e-12 -5.3618544975452042e-12 0.0000000000000000 -107.15466629968294 -103.84120130723400 100.55016500991876 102.24201981555134 0.0000000000000000 0.0000000000000000 0.0000000000000000 0.0000000000000000 3.0366585867760558 3.0732897859469221 1.0366293572914431 1.0180670424784972 458.39764760947207 458.39737557177745 1.0181418309753179 
-27.057602826699739 -115.42985878547638 101.76656085155921 -27.057602826699739 -115.42985878547641 101.76656085155916 -95.382429453014609 1.8665513210665183e-05 1.1100687042870722e-05 -2.8236585296780039e-05 0.0000000000000000 9.2502426759613718e-09 -6.4438875640989267e-08 -8.0547718138102499e-08 -0.00062031839520466274 -1.1331072089322289e-11 -5.1907657249888274e-11 -1.0105253902578295e-10 0.0000000000000000 -26.889884864405381 -115.37486796036181 103.37575244326078 96.382960025775517 0.0000000000000000 0.0000000000000000 0.0000000000000000 0.0000000000000000 3.0640887295260728 3.1292095457119680 1.0651238686361209 1.0321092171729249 294.72112123545674 294.72112079542609 1.0320461695728447 
-110.01539078591260 -103.68491629005790 151.41637381439307 -110.01539078591260 -103.68491629005786 151.41637381439301 -195.31536437499011 5.4565323005489566e-07 1.7702556318928351e-06 2.4326455809235527e-07 -196.02070151417186 1.4484975718875859e-11 6.7842953477281763e-13 7.3752652873793076e-09 -0.00054300186153094510 -3.3994189078702410e-13 -2.3933722486185012e-13 -1.2888513821899891e-12 -0.00054248342520372517 -109.56833416800004 -103.62177336400003 152.19744990400002 70.302883591683823 0.0000000000000000 0.0000000000000000 0.0000000000000000 0.0000000000000000 3.0425565107842565 3.0854697571675040 1.0429139800297043 1.0212503866510638 430.78000999885148 430.78001614614482 1.0212328085897726 