# For a description of the Tecplot format see the Tecplot User's guide.
#
Variables=x,y,z,s_u,s_v,s_w,s_p,mono_f_vel_u,mono_f_vel_v,mono_f_vel_w,const,u_nu,v_nu,w_nu,p_nu,x_nu,y_nu,z_nu,const,u_ref,v_ref,w_ref,vol_ref,x_ref,y_ref,z_ref,const,I1,I2,I3,J,p1,p2,p3
Zone f=fepoint, n=356, e=1130, et=brick, c=black
-65.7686 -97.5198 92.2906 -65.768629048422383 -97.519844337765804 92.290627666205197 -8.1390353535658608 -8.6169833102736044e-08 1.0897429221614857e-07 -1.4429121886990424e-07 -1.1014032252088901e-22 4.6189956590461661e-10 4.3081895689800469e-11 4.7049678153499037e-08 5.1130383087576681e-06 5.6625114585375734e-14 -9.1083782379001674e-14 6.2120235953335646e-14 3.6695063044937683e-23 -65.754724465942431 -97.517594547729473 92.373562431030237 2074.8615187338191 0.0000000000000000 0.0000000000000000 0.0000000000000000 0.0000000000000000 3.0021474707902391 3.0042960090785855 1.0021485384404809 1.0010750484214010 22.298813414467155 22.441684202013906 1.0010736928220145 
-75.762830838627508 -130.56702327419936 78.791370576745734 -75.762830838627480 -130.56702327419933 78.791370576745734 -8.1982242827133120 -2.9600545830273043e-07 3.3845723588227786e-08 -2.2119238333185625e-08 -7.9791466064210113 5.2240271353545809e-10 1.3069009069388571e-10 5.2820047224955140e-08 5.1276923206560322e-06 1.8895956214760630e-13 -1.5672191758244230e-14 2.7440609841613658e-14 5.1438973689875140e-06 -75.747104543999981 -130.56019973999997 78.884476808000016 2128.8259272129790 0.0000000000000000 0.0000000000000000 0.0000000000000000 0.0000000000000000 3.0021492286299254 3.0042995269668729 1.0021502984896633 1.0010750484213999 22.490643383404102 22.426400833028840 1.0010745719039973 
-63.435754096059277 -121.80022836991198 71.141759797276947 -63.435754096059277 -121.80022836991199 71.141759797276947 -8.1478754057267011 5.2441349486030624e-08 1.1148635889671564e-07 -5.7442433975392858e-08 -8.0090714978417221 4.4776835581364360e-10 1.0744241260574049e-10 5.6089931310676639e-08 5.1499195732283493e-06 -4.0865680738220757e-14 -1.3564142815529020e-13 1.1736103921948719e-13 4.9814767078921696e-06 -63.422274742800013 -121.79461816400000 71.240629883439979 1237.7701333319521 0.0000000000000000 0.0000000000000000 0.0000000000000000 0.0000000000000000 3.0021522188266583 3.0043055068557125 1.0021532881812929 1.0010750484214002 22.236431774578911 22.217108747336198 1.0010760651107533 
-56.164472090896567 -132.08658102966396 76.546618549306061 -56.164472090896545 -132.08658102966393 76.546618549306046 -7.8761239325390537 1.7141871670908162e-07 1.0322287167863232e-07 -1.5128689082914932e-07 -7.9379137894180012 4.0374322331573897e-10 1.3471761206584889e-10 5.3779588005120609e-08 5.0183091067307697e-06 -6.6041373714204549e-14 -1.8413892670789453e-14 1.4547015560178497e-13 5.3265592854725592e-06 -56.152318124399997 -132.07954718800002 76.641416164000006 2090.5778096190215 0.0000000000000000 0.0000000000000000 0.0000000000000000 0.0000000000000000 3.0021459135892070 3.0042928960607780 1.0021469826243492 1.0010750484213999 21.843313204791567 21.683675402488859 1.0010729158003875 
-122.92218806819760 -110.39143455580839 89.122103204520158 -122.92218806819758 -110.39143455580839 89.122103204520158 -8.6679385250357104 -1.9694664029817083e-08 4.2523600728436293e-08 -2.6467915006037127e-07 -8.7643346513632725 8.0796343270364557e-10 7.7199023215679397e-11 4.8404089708631304e-08 5.2794752464950681e-06 -1.1556715146941062e-14 -4.5282495786718002e-14 7.5779372231434680e-14 5.2987264893730490e-06 -122.89786571200003 -110.38740333199999 89.207425400000020 2092.2379289329847 0.0000000000000000 0.0000000000000000 0.0000000000000000 0.0000000000000000 3.0021508636194523 3.0043027966746858 1.0021519332076889 1.0010750484214004 23.429560807390136 23.468657960656888 1.0010753883739125 
-122.79411459136092 -128.51065399978341 93.399841973767380 -122.79411459136094 -128.51065399978344 93.399841973767408 -8.5618272909509727 -2.2959281465510919e-08 1.0374957585392470e-08 -2.1875876602359758e-07 -8.6939027216061486 8.0718049995723296e-10 1.2522028552952591e-10 4.6575540146864831e-08 5.2276482531007115e-06 -3.6234580068930511e-15 -3.1072560449710310e-14 3.3343800759688971e-14 5.1323365599834198e-06 -122.76981557999994 -128.50411506799998 93.481940963999989 2295.0048277193882 0.0000000000000000 0.0000000000000000 0.0000000000000000 0.0000000000000000 3.0021516402475661 3.0043043488487009 1.0021527087532491 1.0010750484214002 23.165977589188422 23.184706615574040 1.0010757757095035 
-87.351783875587969 -119.55847051509255 107.94057544991398 -87.351783875587941 -119.55847051509259 107.94057544991394 -8.2005531189807712 -1.4559808191696572e-07 1.7951817785100653e-08 -1.9602842353292405e-07 -2.1097109476061138e-22 5.9258370129280914e-10 1.0151078588815921e-10 4.0359983410898082e-08 5.0922039706769834e-06 1.1991164207044168e-13 -2.0347245959493959e-14 5.0160322637238056e-14 7.0362508298785120e-23 -87.333945182495114 -119.55317056945796 108.01171823852533 1853.2119812635015 0.0000000000000000 0.0000000000000000 0.0000000000000000 0.0000000000000000 3.0021470943898678 3.0042952606647377 1.0021481664282701 1.0010750484213999 22.512696183714944 22.439712465729588 1.0010735070321457 
-121.92095320620807 -118.95450770491487 106.96578016970487 -121.92095320620807 -118.95450770491490 106.96578016970487 -8.3685455313601800 -1.1883677957403473e-08 3.1820007333406828e-08 -1.1724881698882812e-07 -8.3321784675870205 8.0189820799228529e-10 9.9900671068908764e-11 4.0776662518782203e-08 5.1443045540886304e-06 -4.7034691365237502e-16 -3.1612018242818871e-14 4.5429882740636877e-14 5.1503599986813184e-06 -121.89681335200000 -118.94929134799999 107.03765745040002 1571.7251237143605 0.0000000000000000 0.0000000000000000 0.0000000000000000 0.0000000000000000 3.0021500843042794 3.0043012338340924 1.0021511496811379 1.0010750484214002 22.798976921190025 22.830514938112682 1.0010749970349633 
-44.185474221256840 -163.63572286974619 123.59051814739290 -44.185474221256854 -163.63572286974616 123.59051814739288 -7.5529817918260971 3.1577695471954845e-07 -3.6863965605920672e-07 1.8897125462465829e-07 0.0000000000000000 3.3120832335434280e-10 2.1832596147630662e-10 3.3670281007758263e-08 4.8225454276407751e-06 -2.6230168392428978e-13 2.9138057185338005e-13 2.4941869264245296e-14 0.0000000000000000 -44.175503749389662 -163.62432261291502 123.64986896362305 1288.7765825848380 0.0000000000000000 0.0000000000000000 0.0000000000000000 0.0000000000000000 3.0021338900325083 3.0042688231614019 1.0021349332738012 1.0010768812473974 21.098947214353146 21.212268243534314 1.0010668976777253 
-15.482966507260778 -143.87343360326685 136.01299740395254 -15.482966507260782 -143.87343360326688 136.01299740395254 -7.5860953518187806 8.8561670043503430e-08 -2.3405690511115186e-07 1.5020461322242867e-07 -7.6830471598472592 1.5741332065957736e-10 1.6595569016231160e-10 2.8360200104993183e-08 4.8120806452849030e-06 -3.5560645997715553e-14 1.9817529873420243e-13 -3.0335173071656298e-14 4.7640769138516860e-06 -15.478227839600008 -143.86476845600004 136.06298808800005 1207.7015194609139 0.0000000000000000 0.0000000000000000 0.0000000000000000 0.0000000000000000 3.0021240817886561 3.0042492106584056 1.0021251290177360 1.0010725607164503 21.351707168522541 21.337982040557559 1.0010620006560913 
-44.185474221256840 -163.63572286974619 139.24046084487179 -44.185474221256825 -163.63572286974616 139.24046084487179 -7.9662575957217143 2.3119010534058783e-08 -1.7069198274340280e-07 2.0096826061269614e-07 0.0000000000000000 3.3120832335434280e-10 2.1832596147630667e-10 2.6980592870984317e-08 4.9402757927341203e-06 -2.8941845202376090e-14 1.5881085340432923e-13 -5.3542162666218121e-14 0.0000000000000000 -44.175503749389669 -163.62432261291511 139.28801968872074 2260.0113226803110 0.0000000000000000 0.0000000000000000 0.0000000000000000 0.0000000000000000 3.0021445353350873 3.0042901344274910 1.0021455992435377 1.0010732720032562 22.122833826921120 22.085780710726223 1.0010722247864259 
-5.8848624920288897 -161.46982979627299 130.37115419742565 -5.8848624920288879 -161.46982979627302 130.37115419742571 -8.1295619797083170 2.2836138689987773e-07 -1.7608774908315894e-07 1.2114558510582562e-07 -8.2620820747464983 9.9296088278827410e-11 2.1259178792365494e-10 3.0771839437671034e-08 5.0111178171971350e-06 -1.3882372210622183e-13 1.6608817059039084e-13 -4.5967684411347385e-14 4.9699201791874442e-06 -5.8818733370400009 -161.45872929999999 130.42539591680000 1840.5999298976626 0.0000000000000000 0.0000000000000000 0.0000000000000000 0.0000000000000000 3.0021546922229736 3.0043104583493805 1.0021557662800151 1.0010750484214004 22.420676036155193 22.378842328510366 1.0010773028458044 
-9.7843679555669247 -107.11254698832064 182.97449114296762 -9.7843679555669230 -107.11254698832066 182.97449114296765 -8.5049168340686592 -5.0708874334573508e-08 1.2094198930066164e-08 1.1737226524487193e-07 -8.5249358847062471 1.2290811294071724e-10 6.8520663101812040e-11 8.2861147943091834e-09 4.9599166165473102e-06 -1.4861265922705337e-14 -3.1368581337126889e-14 8.1511033422916004e-15 4.9998297062781308e-06 -9.7806680107999995 -107.10896956400003 182.98909712000000 1021.2952016557671 0.0000000000000000 0.0000000000000000 0.0000000000000000 0.0000000000000000 3.0021500924218367 3.0043012536358780 1.0021511613663634 1.0010750484213986 23.052887965761702 23.046677546522137 1.0010750028654509 
-17.570885972354002 -108.64102343813647 193.38715656974787 -17.570885972354002 -108.64102343813647 193.38715656974790 -8.6174648575821529 -8.2925318801153406e-08 1.8218360908621077e-08 5.8957121909684261e-08 -8.6696802746157307 1.7005437422806802e-10 7.2569339426564738e-11 3.8351412323667242e-09 4.9237863403582943e-06 -4.5311234749099334e-14 -3.3160136408162339e-14 2.8512971651480777e-14 4.9701619883042738e-06 -17.565766725200003 -108.63723447200002 193.39391677600000 1230.2822850381203 0.0000000000000000 0.0000000000000000 0.0000000000000000 0.0000000000000000 3.0021499003134182 3.0043008692338260 1.0021509690726831 1.0010750484213993 23.312250514444830 23.306327028843267 1.0010749068198330 
-44.185474221256840 -119.55847051509255 170.54034623982966 -44.185474221256790 -119.55847051509242 170.54034623982983 -8.5044809853597805 1.9573980034962394e-08 6.7813687065612049e-08 1.7360590898263465e-07 0.0000000000000000 3.3120832335434286e-10 1.0151078588815921e-10 1.3601188036949097e-08 4.9573477112442715e-06 2.2885948333526587e-15 -5.1897567352539983e-14 5.7442093563652377e-14 0.0000000000000000 -44.175503749389591 -119.55317056945772 170.56432113891603 1872.3464537223574 0.0000000000000000 0.0000000000000000 0.0000000000000000 0.0000000000000000 3.0021515641411800 3.0043041978971434 1.0021526339084177 1.0010750484213993 23.049104485968368 23.079904076438886 1.0010757383690252 
-9.3354580072519457 -124.40307890557588 188.85445279659695 -9.3354580072519457 -124.40307890557587 188.85445279659692 -8.5449730138238316 -4.6106574930891274e-08 -2.9708976735957901e-08 7.7238592311158066e-08 -8.5486968644942660 1.2018985784921499e-10 1.1434676816524103e-10 5.7726752822340197e-09 4.9421045724594448e-06 -2.4634476077052147e-14 1.6696487778080325e-14 -2.7480857421836538e-15 4.9598426652451978e-06 -9.3318398883999993 -124.39710846400000 188.86462832000004 1016.3527334425750 0.0000000000000000 0.0000000000000000 0.0000000000000000 0.0000000000000000 3.0021497983322893 3.0043006652135023 1.0021508670334809 1.0010750484213979 23.147126696045977 23.140597986424208 1.0010748558531899 
-44.185474221256840 -163.63572286974619 107.94057544991398 -44.185474221256854 -163.63572286974616 107.94057544991394 -7.8094578690438308 1.0476389867320973e-07 -4.7403117942227012e-07 -4.3536282577426724e-07 1.4420137965657432e-21 3.3120832335434275e-10 2.1832596147630667e-10 4.0359983410898082e-08 4.9253326158948441e-06 -7.3134459847604384e-14 3.4704823602201294e-13 5.3849340242488286e-14 -4.8096861798877492e-22 -44.175503749389662 -163.62432261291499 108.01171823852535 1450.3671205666894 0.0000000000000000 0.0000000000000000 0.0000000000000000 0.0000000000000000 3.0021707036117822 3.0043425079660917 1.0021718045137158 1.0010819958932422 21.865856280038024 22.133456003912848 1.0010853132691475 
-61.166720530448771 -160.96587662493144 85.915044119465492 -61.166720530448764 -160.96587662493141 85.915044119465449 -8.3193284937913798 -1.4988196885223474e-07 -4.0444931830700748e-07 -9.8616453306191879e-08 -8.3943527354560192 4.3402807433159940e-10 2.1126782615010780e-10 4.9774975086069879e-08 5.0798362815112105e-06 9.7130057350874862e-14 2.9561531120807856e-13 1.1909436739179478e-13 5.2005222040640629e-06 -61.153654769600031 -160.95484587600001 86.002782780800032 1645.6757988676138 0.0000000000000000 0.0000000000000000 0.0000000000000000 0.0000000000000000 3.0021374655655602 3.0042760022740969 1.0021385368624725 1.0010721471741248 22.810512991083513 22.803699429440886 1.0010686973898579 
-44.242679406651206 -168.01361666326605 83.186595246471299 -44.242679406651192 -168.01361666326605 83.186595246471299 -8.5175200382759382 1.5155695505319793e-09 -3.8663214812546567e-07 -5.9150851013982833e-08 -8.2492931647338690 3.3155394445552594e-10 2.2993402667981225e-10 5.0941278778582344e-08 5.1476020440795871e-06 3.5049125208847702e-15 2.9723282957871879e-13 7.9282529426269582e-14 5.1447899381275005e-06 -44.232698507600013 -168.00161050399998 83.276389748800028 1737.4139093181343 0.0000000000000000 0.0000000000000000 0.0000000000000000 0.0000000000000000 3.0021494678403040 3.0043000003118157 1.0021505326228266 1.0010750484214010 23.077445323522152 23.033600351765983 1.0010746888329050 
-44.185474221256840 -185.67434904707298 107.94057544991398 -44.185474221256818 -185.67434904707287 107.94057544991395 -8.6093526332189949 -1.2268183500890094e-08 -2.0262486929865345e-07 -1.7134738405412590e-07 -1.0819027050065059e-22 3.3120832335434280e-10 2.7674065122829106e-10 4.0359983410898075e-08 5.1750817839780091e-06 2.3983614397790326e-14 1.7357907678157579e-13 1.6724177150519355e-14 3.6099938451619348e-23 -44.175503749389676 -185.65989863464350 108.01171823852533 1616.4576808433910 0.0000000000000000 0.0000000000000000 0.0000000000000000 0.0000000000000000 3.0021461317337206 3.0042933282869768 1.0021471967042905 1.0010742390144702 23.263119012649128 23.296970477686838 1.0010730226539288 
-87.351783875587969 -141.59709669241937 139.24046084487179 -87.351783875587941 -141.59709669241934 139.24046084487185 -8.2543271542363073 -7.5402990422106833e-08 -4.4872772422875959e-08 9.4262732114304882e-08 0.0000000000000000 5.9258370129280914e-10 1.5991127172432229e-10 2.6980592870984310e-08 5.0487865956255876e-06 5.7164432300914062e-14 4.0929384006910560e-14 -7.4515583181591263e-15 0.0000000000000000 -87.333945182495100 -141.58874659118649 139.28801968872074 1877.7986991733408 0.0000000000000000 0.0000000000000000 0.0000000000000000 0.0000000000000000 3.0021380892426914 3.0042772335951851 1.0021391445020607 1.0010689660418612 22.604794695685051 22.616668362183528 1.0010690007049057 
-65.768629048422412 -163.63572286974619 139.24046084487179 -65.768629048422426 -163.63572286974616 139.24046084487176 -8.1238003666933984 -1.5125027833336079e-07 -7.2486581164686162e-08 1.5343984140184951e-07 -3.9715040310203967e-23 4.6189956590461646e-10 2.1832596147630667e-10 2.6980592870984317e-08 5.0007391031258711e-06 1.2699582322220580e-13 6.7305818470966938e-14 -2.8913143628756835e-14 1.3239219995684085e-23 -65.754724465942374 -163.62432261291517 139.28801968872077 2018.1238718776010 0.0000000000000000 0.0000000000000000 0.0000000000000000 0.0000000000000000 3.0021362340817737 3.0042735219680869 1.0021372880352055 1.0010713528816650 22.353981257874690 22.370853709633224 1.0010680736217925 
-87.351783875587969 -163.63572286974619 123.59051814739290 -87.351783875587941 -163.63572286974616 123.59051814739281 -8.3232669647306583 -1.0948486320494142e-07 -8.0083408008029238e-08 -5.8040852563646239e-08 0.0000000000000000 5.9258370129280914e-10 2.1832596147630665e-10 3.3670281007758256e-08 5.0913821449774605e-06 8.6741941472164228e-14 6.5036983750181465e-14 1.9834676785626067e-14 0.0000000000000000 -87.333945182495114 -163.62432261291505 123.64986896362312 1549.0027140339625 0.0000000000000000 0.0000000000000000 0.0000000000000000 0.0000000000000000 3.0021546326059236 3.0043103382621736 1.0021557058094499 1.0010754478371815 22.779136159807532 22.709681243985631 1.0010772726305683 
-87.351783875587969 -141.59709669241937 123.59051814739290 -87.351783875587941 -141.59709669241937 123.59051814739280 -8.0038424028816824 -3.2850434436328401e-07 -1.6740024218197082e-07 8.9152790808519239e-09 0.0000000000000000 5.9258370129280924e-10 1.5991127172432232e-10 3.3670281007758263e-08 4.9873534525861739e-06 2.5578500979011129e-13 1.2150126736324906e-13 2.1678816703516790e-14 0.0000000000000000 -87.333945182495086 -141.58874659118649 123.64986896362313 1389.1126189879024 0.0000000000000000 0.0000000000000000 0.0000000000000000 0.0000000000000000 3.0021396770739841 3.0042803885114284 1.0021407115807475 1.0010743396379194 22.119660898715360 22.315358703175445 1.0010697837836060 
-45.207790744556661 -110.33773462771461 48.731366614087953 -45.207790744556647 -110.33773462771457 48.731366614087953 -9.0815267917202220 7.5534774310517694e-08 1.4183563731128779e-07 -1.6968598818065062e-07 -9.0640903584798629 3.3739681231173551e-10 7.7068658746459752e-11 6.5669447157912231e-08 5.5274534159872695e-06 1.5668937571113390e-14 -5.0158602720329949e-14 1.1189506455063236e-13 5.4730364125100319e-06 -45.197633928000002 -110.33371083599998 48.847122559999995 1069.0094105005942 0.0000000000000000 0.0000000000000000 0.0000000000000000 0.0000000000000000 3.0021502895528465 3.0043016479886804 1.0021513585881667 1.0010750484213997 24.066529353839488 24.065695229883698 1.0010751013714592 
-57.135964117454186 -98.833689157939830 46.108303720482191 -57.135964117454186 -98.833689157939773 46.108303720482205 -9.3642435395417731 -8.4802630169594607e-08 1.4756734953311627e-07 -2.3406569795755332e-07 -9.3766906917289798 4.0962511030709359e-10 4.6576605419734734e-11 6.6790696751084511e-08 5.6472554965323200e-06 1.1504304979050573e-13 -3.5151323458717715e-14 1.1223937677004422e-13 5.7890218012182412e-06 -57.123633070400032 -98.831257531200038 46.226036100800002 1475.5774262919704 0.0000000000000000 0.0000000000000000 0.0000000000000000 0.0000000000000000 3.0021501954287384 3.0043014596433624 1.0021512643669370 1.0010750484213999 24.612856348194398 24.612155828255950 1.0010750543124169 
-60.152522021485808 -105.59036056504725 57.151491701954697 -60.152522021485794 -105.59036056504721 57.151491701954690 -8.9539946822303218 5.2040650196691050e-09 3.8703211157353805e-07 -3.5834622689958790e-07 -8.3088700621452567 4.2788512360017466e-10 6.4473440475332211e-11 6.2070193623808834e-08 5.4699586922349591e-06 9.3760789562741764e-14 -1.5820245250688171e-13 2.8977638906627082e-13 5.8494821418570025e-06 -60.139641125599979 -105.58699381199996 57.260903223199996 1724.6135661994952 0.0000000000000000 0.0000000000000000 0.0000000000000000 0.0000000000000000 3.0021499494858137 3.0043009676011456 1.0021510182676185 1.0010750484213999 23.780061901690960 23.787661016534521 1.0010749313974350 
-19.411475602530970 -88.117004801690925 57.589995508903819 -19.411475602530970 -88.117004801690896 57.589995508903819 -8.9839356463612337 -6.9795776621814807e-08 5.5518646938444560e-08 -3.3505038907395234e-07 -8.9955251442531097 1.8120138766189450e-10 1.8168373056015593e-11 6.1882753227271423e-08 5.4841653209083170e-06 2.1099152299771215e-14 -1.0737573278206314e-13 4.5590933012964412e-14 5.4853957709779348e-06 -19.406020858399991 -88.116056368799974 57.699076624800000 1439.6451283969650 0.0000000000000000 0.0000000000000000 0.0000000000000000 0.0000000000000000 3.0021500896728877 3.0043012480402500 1.0021511585196554 1.0010750484213997 23.920742782047174 23.924812724848074 1.0010750014472067 
-58.789169287372125 -178.60179671606255 78.661978087249921 -58.789169287372140 -178.60179671606252 78.661978087249935 -8.9446089334088974 -5.6013055483813157e-08 -7.6130439223270326e-08 -9.9345220697331333e-08 -9.0043106913454984 4.1963127981117792e-10 2.5801636868716393e-10 5.2875364031645944e-08 5.2968142567601865e-06 4.2974099082345649e-14 2.3030383309839526e-14 1.0251225155808092e-13 5.4665696217704122e-06 -58.776536899199989 -178.58832514800000 78.755181813599989 1584.4809985467919 0.0000000000000000 0.0000000000000000 0.0000000000000000 0.0000000000000000 3.0021558972382816 3.0043128699683517 1.0021569728841107 1.0010750484214004 23.895748243595683 23.896708250895525 1.0010779055326837 
-74.478868949631178 -184.95716442976155 72.127640034491989 -74.478868949631178 -184.95716442976160 72.127640034491975 -9.0601981921583779 -4.4049307160072281e-08 -5.7766571543023269e-08 -2.9043051960771966e-08 -9.0799180514057660 5.1463108470886643e-10 2.7485112102931808e-10 5.5668514964413156e-08 5.3419225200308752e-06 1.5054557910702223e-14 5.2856344314932994e-15 2.8995056729485064e-14 5.3037829133592776e-06 -74.463376691600018 -184.94281327599995 72.225767276240006 1182.3928641350060 0.0000000000000000 0.0000000000000000 0.0000000000000000 0.0000000000000000 3.0021490616234900 3.0042991875722360 1.0021501260997447 1.0010750484214006 24.106183669325443 24.106643777503248 1.0010744857733671 
-69.751403855536097 -211.60650479424007 86.504973605553531 -69.751403855536083 -211.60650479424004 86.504973605553559 -8.9927457300822322 8.0954630713555322e-09 1.4396948353699922e-08 -9.9976115359860136e-08 -8.9840565610261205 4.8600509944610182e-10 3.4549662089600197e-10 4.9522800693591051e-08 5.3095973772400331e-06 -1.2612249037316393e-14 5.0966518034670367e-15 3.4007828289486738e-14 5.3233898810265170e-06 -69.736773305200003 -211.58846536000007 86.592267764799999 1391.6778601551057 0.0000000000000000 0.0000000000000000 0.0000000000000000 0.0000000000000000 3.0021517821960191 3.0043046381968002 1.0021528561545352 1.0010750484214002 23.932010754052133 23.934785650162954 1.0010758493717904 
-86.831587969794342 -207.29135882413161 90.223636020836281 -86.831587969794342 -207.29135882413161 90.223636020836253 -8.9321383261750782 5.1277005843094735e-08 -2.3616858893850242e-08 -1.2026463878711215e-07 -9.0900906946383184 5.8943070606679027e-10 3.3406345745223831e-10 4.7933227553809132e-08 5.2906947773831977e-06 -2.7999784214976857e-14 1.9638453891478333e-14 -1.6817571645880396e-14 5.3164693738769370e-06 -86.813844096400004 -207.27391660800001 90.308128229600001 1955.0875990986240 0.0000000000000000 0.0000000000000000 0.0000000000000000 0.0000000000000000 3.0021542343074090 3.0043095422154904 1.0021553080616559 1.0010750484214004 23.927394924379715 23.939835261715665 1.0010770740093398 
-74.389088798783348 -212.60352094171526 100.58039514554468 -74.389088798783348 -212.60352094171526 100.58039514554468 -8.8505542985263084 -5.7984936079347112e-09 5.4536781233818552e-09 -2.9597575501907088e-08 -8.8959364824806180 5.1409227439305760e-10 3.4814412810946216e-10 4.3506147184846355e-08 5.2536520787439662e-06 6.9563252960073060e-15 -3.0472615747557082e-15 1.1573316953048658e-14 5.2669951895957758e-06 -74.373612905599998 -212.58534351999998 100.65708370800000 988.41240310934302 0.0000000000000000 0.0000000000000000 0.0000000000000000 0.0000000000000000 3.0021548299646117 3.0043107384154113 1.0021559086058274 1.0010750484213995 23.762454944716893 23.765748496982333 1.0010773739775189 
-65.768629048422412 -185.67434904707298 107.94057544991398 -65.768629048422426 -185.67434904707284 107.94057544991395 -8.6492919568814415 9.9174840557691695e-09 -1.3889366818436875e-07 -1.8760517160549063e-07 -7.4129408505165474e-22 4.6189956590461666e-10 2.7674065122829111e-10 4.0359983410898075e-08 5.1912125140412978e-06 -3.1764394082489293e-15 1.2370113666236875e-13 1.7012633378300797e-14 2.4725356021496575e-22 -65.754724465942374 -185.65989863464350 108.01171823852535 1808.0980320372519 0.0000000000000000 0.0000000000000000 0.0000000000000000 0.0000000000000000 3.0021332292126468 3.0042674950740320 1.0021342660047994 1.0010706576051371 23.294540361989540 23.274925041196404 1.0010665641318353 
-83.478490112702445 -208.37821908207141 108.95451386677684 -83.478490112702431 -208.37821908207141 108.95451386677681 -8.7361533032490630 1.8499717145137318e-08 -2.2112708567741552e-08 -1.3201101584342631e-07 -8.6908109391993023 5.6912709484394086e-10 3.3694875015144449e-10 3.9926561085090739e-08 5.2163290004301831e-06 -1.6411905641646236e-14 1.0559541401519772e-14 5.5888722455632363e-14 5.2125771620134778e-06 -83.461357431600007 -208.36062644399999 109.02489266960001 1287.0831768928649 0.0000000000000000 0.0000000000000000 0.0000000000000000 0.0000000000000000 3.0021558184744808 3.0043127145844437 1.0021568962646148 1.0010750484213997 23.456921206668742 23.481565666875529 1.0010778672613476 
-41.568334200490220 -130.05302483658855 65.651647601231105 -41.568334200490213 -130.05302483658855 65.651647601231133 -8.4481092721746691 1.0950923980484132e-07 1.1506807669091984e-07 -2.3675962606318511e-07 -8.4424909155785421 3.1535990702505345e-10 1.2931014592432175e-10 5.8436731675826075e-08 5.2552073210489508e-06 -2.2465620209831385e-14 -1.1284396582166744e-14 1.8388904786080975e-13 5.4394293669818374e-06 -41.558840772800004 -130.04627243999997 65.754654395919971 2180.9238908936368 0.0000000000000000 0.0000000000000000 0.0000000000000000 0.0000000000000000 3.0021516149017722 3.0043042999769445 1.0021526852277582 1.0010750484214002 23.038986183824498 23.037634235266520 1.0010757639625785 
-22.794169189840918 -134.45247593856445 55.795560544706042 -22.794169189840918 -134.45247593856445 55.795560544706049 -8.7557710135635993 7.0837822849212355e-08 3.9787919389185344e-08 -9.1924523680004205e-08 -8.7818448139001166 2.0168114270649465e-10 1.4097916584132619e-10 6.2649799237313175e-08 5.3848697218028776e-06 -9.8894502968708733e-15 1.2148802468055668e-14 3.8985628718447576e-14 5.3632337104455582e-06 -22.788097858800000 -134.44511465599999 55.905993737599999 935.86986824075086 0.0000000000000000 0.0000000000000000 0.0000000000000000 0.0000000000000000 3.0021494147096845 3.0042998973512489 1.0021504827936940 1.0010750484213995 23.513603758437039 23.510512376141442 1.0010746639561934 
-11.029696337767303 -103.60552860742753 62.002886063420718 -11.029696337767298 -103.60552860742752 62.002886063420725 -8.7354690949011857 -6.9669196767471589e-08 -2.4391009588738974e-08 -3.2785702659793859e-07 -8.6958051311813840 1.3044761841898842e-10 5.9218935311022847e-11 5.9996426882147347e-08 5.3760307092882836e-06 6.3175543229648188e-15 -6.1818419020410251e-14 4.1466528885004533e-14 5.3755689270799068e-06 -11.025769398400001 -103.60243655599999 62.108642139439993 1284.9349949311236 0.0000000000000000 0.0000000000000000 0.0000000000000000 0.0000000000000000 3.0021498219338119 3.0043007123266756 1.0021508905451133 1.0010750484213997 23.538307205582683 23.546181041751154 1.0010748676073313 
-29.001457571141351 -140.77254439883117 69.971495429195983 -29.001457571141348 -140.77254439883117 69.971495429195997 -8.4088848480899578 9.8277850232720780e-08 1.2731189012602505e-07 -2.4814504494132717e-07 -8.3306534950877023 2.3926790973863299e-10 1.5773617134673401e-10 5.6590173547199640e-08 5.2279181808397788e-06 -4.0548794377854987e-14 8.0935613506113667e-15 1.6214370458973633e-13 5.4462841969098630e-06 -28.994254794799993 -140.76430841599998 70.071247290159988 2176.9829965296321 0.0000000000000000 0.0000000000000000 0.0000000000000000 0.0000000000000000 3.0021523555353435 3.0043057824111483 1.0021534270286743 1.0010750484213995 22.852978231187286 22.844885449013148 1.0010761344517023 
-103.42716153914343 -194.06953526991111 93.958738328905724 -103.42716153914344 -194.06953526991109 93.958738328905710 -8.8322589466084178 -2.2962567720567334e-08 2.3323779192070283e-09 -8.9740760024425094e-08 -8.9333605567403396 6.8991373421492540e-10 2.9899624096052513e-10 4.6336628395371449e-08 5.2604190861045608e-06 8.6886975700885195e-15 -1.8476139002261274e-14 7.2214457456899683e-15 5.2337824788814631e-06 -103.40639267600000 -194.05392295999994 94.040416199999996 2662.2783756828549 0.0000000000000000 0.0000000000000000 0.0000000000000000 0.0000000000000000 3.0021538660835030 3.0043088084412308 1.0021549425120855 1.0010750484214002 23.685217677826191 23.670175833644688 1.0010768914390817 
-82.525459790487119 -162.31259947196841 77.707970975506541 -82.525459790487091 -162.31259947196847 77.707970975506498 -8.8615101347494889 -1.3781311702451249e-07 -1.3236026292961776e-07 -1.7929439646672767e-07 -8.8010288187970769 5.6335430287726685e-10 2.1481735834605331e-10 5.3283154222150131e-08 5.2865437330102714e-06 7.1127589148764217e-14 6.3487837731465311e-14 1.9091941825070191e-13 5.5811374909201133e-06 -82.508500824799995 -162.30138233600007 77.801893530400037 2229.3857910936085 0.0000000000000000 0.0000000000000000 0.0000000000000000 0.0000000000000000 3.0021562413235769 3.0043135587848586 1.0021573176153424 1.0010750484213999 23.725662202034304 23.702262423425278 1.0010780777208383 
-27.998115115405877 -125.06812705942430 127.50300382176262 -27.998115115405877 -125.06812705942423 127.50300382176272 -7.2351898504335370 -9.8727679557974599e-08 -1.5580430311630425e-08 4.1933435314440133e-07 -3.5469123508082696e-22 2.3319110748279415e-10 1.1610735983769160e-10 3.1997851868137410e-08 4.6987912280969283e-06 1.1903263908682328e-13 1.7777854349749156e-14 -8.4134736729856656e-14 1.1821548524975916e-22 -27.991095225219734 -125.06206457489009 127.55940664489751 1124.7619503421174 0.0000000000000000 0.0000000000000000 0.0000000000000000 0.0000000000000000 3.0021473979653304 3.0042958588785744 1.0021484610641489 1.0010772946747950 20.639203063231239 20.639706796594695 1.0010736540650920 