# For a description of the Tecplot format see the Tecplot User's guide.
#
Variables=x,y,z,s_u,s_v,s_w,s_p,mono_f_vel_u,mono_f_vel_v,mono_f_vel_w,const,u_nu,v_nu,w_nu,p_nu,x_nu,y_nu,z_nu,const,u_ref,v_ref,w_ref,vol_ref,x_ref,y_ref,z_ref,const,I1,I2,I3,J,p1,p2,p3
Zone f=fepoint, n=3174, e=16683, et=brick, c=black
-25.2133 -154.644 108.891 -25.213267199118427 -154.64385986469873 108.89085282642128 -221.20220420168494 -1.8433612132438604e-05 -7.5078002031411811e-05 -7.8086869301706422e-05 -213.68181240087958 1.6722734308416416e-12 6.5336624999190473e-13 2.1759216650707461e-08 -0.0035691989315157976 2.3900974485322426e-11 1.2999871219726412e-10 -3.7097890634328522e-11 -0.0035403901648605731 -24.903554063199991 -154.16086777200002 112.24023381839994 89.724962256112903 0.0000000000000000 0.0000000000000000 0.0000000000000000 0.0000000000000000 3.1104570241172458 3.2229348551155343 1.1124641898614827 1.0563107389738606 603.27345617409753 603.27330767618571 1.0547038968537261 
-37.894543788610527 -155.83089302462378 111.60538757501753 -37.894543788610555 -155.83089302462386 111.60538757501760 -187.01069964629846 6.0597829538729513e-05 -6.3767398216449495e-05 -4.0066637001568083e-05 0.0000000000000000 -1.5279569356033984e-08 1.5839670285635811e-07 -2.7738639301440222e-07 -0.0036884305245527007 -3.0217963132452682e-10 2.6847807046743906e-10 -2.0510620612285457e-10 0.0000000000000000 -37.438273663334591 -155.10473791080037 114.93291110338620 89.036758072416930 0.0000000000000000 0.0000000000000000 0.0000000000000000 0.0000000000000000 3.1515841820193251 3.3094791831364896 1.1579585306948903 1.0719821082857828 626.59314543721609 626.59307890979869 1.0761273310942094 
-31.910388641045611 -148.32044389154308 116.79521902538326 -31.910388641045621 -148.32044389154311 116.79521902538320 -163.63900188255218 1.9416282357681481e-05 -4.5854177495897298e-05 -1.2987703373368539e-05 0.0000000000000000 1.9864943023861770e-12 6.0540461532809786e-13 1.9919086824415902e-08 -0.0036163841321940468 -6.1260452178871080e-11 9.8301309042747623e-13 4.8847497375540154e-11 0.0000000000000000 -31.542619574254449 -147.87907313389167 119.86135157363466 98.260374494724786 0.0000000000000000 0.0000000000000000 0.0000000000000000 0.0000000000000000 3.1267729196283214 3.2574948400126109 1.1307417249680107 1.0650789626873745 550.97302048263020 550.97304651695367 1.0633130918511560 
-28.990109562111520 -143.37620891084788 108.77083933217634 -28.990109562111538 -143.37620891084782 108.77083933217635 -162.05992833747140 2.2508159020712267e-05 -5.7922626141656290e-05 -3.8274494761018843e-05 0.0000000000000000 1.8492707365425076e-12 5.5810911447906619e-13 2.1787148085650188e-08 -0.0036561608621198047 -3.7885152228263906e-10 -3.2187364775570290e-12 -9.4673814946304869e-11 0.0000000000000000 -28.647655777685479 -142.96738158566356 112.12452093910819 112.69127588814607 0.0000000000000000 0.0000000000000000 0.0000000000000000 0.0000000000000000 3.1332293041378034 3.2712223626445662 1.1380390185564233 1.0653913988364281 556.14402191602323 556.14392223235382 1.0667892793891918 
-24.565961980131824 -201.22173183944776 68.945755775447736 -24.565961980131821 -201.22173183944776 68.945755775447751 -585.62534755640104 2.9497643892892601e-06 1.9440669853717738e-07 2.0290653408682785e-06 -588.40732448676829 1.6405210523373622e-12 1.0725864640903637e-12 3.1058352334412120e-08 -0.0034855519751461248 2.0339187157572235e-12 3.0332671706652262e-13 4.2472757257921980e-13 -0.0034856748831408749 -24.261860196399997 -200.43215969199997 73.726546483199982 142.71380061529433 0.0000000000000000 0.0000000000000000 0.0000000000000000 0.0000000000000000 3.1067060420545975 3.2159922808783525 1.1093040231146991 1.0531679105448943 1242.9951745829430 1242.9968675996015 1.0532351938955486 
-24.460586064986298 -188.34388663375418 70.587938193131833 -24.460586064986298 -188.34388663375418 70.587938193131819 -576.54820949402824 1.1799017286238321e-05 -1.6269100544321420e-05 -5.0661647612551571e-06 -579.69184838880381 1.6361079158144776e-12 9.6422869688694846e-13 3.0676044815436398e-08 -0.0034866098870057331 1.4134918212343088e-12 1.1919137040725684e-12 7.7657172589030622e-13 -0.0034870268948297848 -24.157397762799999 -187.63907770800003 75.309882232799993 165.73632395326644 0.0000000000000000 0.0000000000000000 0.0000000000000000 0.0000000000000000 3.1067163486008944 3.2159955174802812 1.1092966072062931 1.0531679105448950 1227.8411008309652 1227.8430920055816 1.0532308397553665 
-35.282543840962461 -196.16763452625332 77.108391808603642 -35.282543840962482 -196.16763452625318 77.108391808603699 -571.65331856604359 4.9850664497924151e-06 -1.2724713587350919e-05 -2.5475906563513562e-05 0.0000000000000000 2.1413149031701546e-12 1.0179634912788060e-12 2.9158094605463702e-08 -0.0034845572939549260 1.7101587453609738e-12 2.9854798023323252e-12 -5.9287340356239803e-13 0.0000000000000000 -34.885542273181727 -195.41132893576267 81.596679120775832 139.46796289390394 0.0000000000000000 0.0000000000000000 0.0000000000000000 0.0000000000000000 3.1057655981455414 3.2140840755177571 1.1083362871818094 1.0522022719365220 1217.5050773516975 1217.4992150323453 1.0527748643678612 
-19.079138632323389 -195.28016417656426 76.917839347842218 -19.079138632323396 -195.28016417656428 76.917839347842190 -581.10304381671699 5.9585065578733847e-06 -8.0386244224399746e-06 -1.1901903651105097e-05 0.0000000000000000 1.3843926005563392e-12 1.0188516696985062e-12 2.9202459117527720e-08 -0.0034874002820650019 1.3219713007765447e-12 1.2360324408684694e-12 7.7407761996484924e-13 0.0000000000000000 -18.822600960987238 -194.52970000168264 81.412954998504986 111.95285379220412 0.0000000000000000 0.0000000000000000 0.0000000000000000 0.0000000000000000 3.1069005909220562 3.2163773730191094 1.1094944974007452 1.0531679105448943 1240.4678970692696 1240.4682507879922 1.0533260976185053 
-22.954111062665611 -103.35330203621382 37.324770928727766 -22.954111062665614 -103.35330203621380 37.324770928727766 -569.66598433922138 -1.7100086914601281e-05 1.9768731876385736e-05 -2.6919534352192334e-05 -575.10358243057374 1.5646928197554642e-12 1.9984014443252820e-13 3.8419645242981915e-08 -0.0034566853627793891 -7.2625613373690709e-14 2.5232978020109249e-13 -2.4665354256205004e-13 -0.0034566583659855149 -22.663982073999996 -103.20790935200000 43.238681550399988 69.202643319072678 0.0000000000000000 0.0000000000000000 0.0000000000000000 0.0000000000000000 3.1064959789848805 3.2155594633062670 1.1090811431667678 1.0531679105448946 1216.3473792964066 1216.3465298183603 1.0531297206954935 
-30.507266382773185 -110.96862441608341 41.214221612748219 -30.507266382773192 -110.96862441608344 41.214221612748226 -555.14572651491505 1.4231023099312854e-06 3.1217494270061575e-05 -3.6510336313823220e-05 -550.26173743627419 1.9193258093963550e-12 2.6267876762631204e-13 3.7514184647591264e-08 -0.0034562626901548758 -1.1679554664198100e-12 -1.9762498350819398e-14 -1.5341665332632915e-12 -0.0034594306576422314 -30.151660686400003 -110.77310694400001 46.988755992800002 74.715282964229786 0.0000000000000000 0.0000000000000000 0.0000000000000000 0.0000000000000000 3.1070233241161094 3.2166245374756461 1.1096188984586897 1.0531679105448946 1188.7008433915757 1188.7016564931869 1.0533859393342073 
-18.990923264953771 -103.71482055403625 44.346114514754241 -18.990923264953775 -103.71482055403628 44.346114514754227 -544.40558296845359 -2.0818634560656929e-05 1.6130508109982257e-05 -3.8866492869515095e-05 -545.38354024550142 1.3812284649361573e-12 1.9584334154387761e-13 3.6785090529178888e-08 -0.0034565675383292777 -1.2111144916609792e-12 4.0603500132799366e-12 -9.1243258959717615e-13 -0.0034562824158505460 -18.735150314000002 -103.56704831999998 50.008419303199993 79.719497061372692 0.0000000000000000 0.0000000000000000 0.0000000000000000 0.0000000000000000 3.1065390727311306 3.2156451649060096 1.1091237337997784 1.0531679105448950 1171.1924354107609 1171.1938725298041 1.0531494305859452 
-25.806737032674732 -98.601706406954733 45.356126369515309 -25.806737032674732 -98.601706406954705 45.356126369515316 -552.10701067707089 6.5749937953619285e-07 7.4563202018619653e-06 -6.0051674777919784e-05 0.0000000000000000 1.7013057629355897e-12 1.5454304502782179e-13 3.6549960391596414e-08 -0.0034584376166695058 1.9296144545090906e-13 2.4244632603014022e-12 3.6563195020740310e-12 0.0000000000000000 -25.491879232152165 -98.487589184379729 50.982237960580505 72.292163684038698 0.0000000000000000 0.0000000000000000 0.0000000000000000 0.0000000000000000 3.1064459094563448 3.2154689657006466 1.1090408838785590 1.0531679105448950 1183.1224544689348 1183.1232212394898 1.0531094037637214 
-25.677228825092630 -104.31668695406738 105.25079742655113 -25.677228825092620 -104.31668695406735 105.25079742655120 -158.30867592132762 1.8603292888226253e-05 6.2252877543172351e-05 -9.7294529886633334e-06 0.0000000000000000 -3.2629296489030663e-08 -9.5607043938462624e-08 -3.6175973336221285e-07 -0.0033932305738300370 2.6857182363185510e-10 4.1961169441418070e-11 -9.3259338051434560e-10 0.0000000000000000 -25.283559732051039 -104.23282252886388 108.75695162467670 96.378087069502698 0.0000000000000000 0.0000000000000000 0.0000000000000000 0.0000000000000000 3.1276463675461499 3.2587717842514405 1.1311186756599794 1.0669678215057430 530.05357528802222 530.05367102901607 1.0634873238645719 
-26.326844689717237 -118.18303094404045 107.20567398237138 -26.326844689717259 -118.18303094404052 107.20567398237142 -116.53464518903749 2.8482963962823249e-05 4.8901650203037231e-06 -2.3285276234899499e-05 0.0000000000000000 2.5038904687468317e-08 -3.3537539578114792e-07 -5.7864379084471735e-07 -0.0034608183491990703 2.8745942780890661e-10 -3.5137430515054232e-10 -6.2965895781238366e-10 0.0000000000000000 -25.913646985361510 -118.01095136745833 110.66456878241424 88.846747377876298 0.0000000000000000 0.0000000000000000 0.0000000000000000 0.0000000000000000 3.1698627791030130 3.3469318021587027 1.1771376401345350 1.0791855363911969 538.51992809293358 538.51992171711186 1.0850147106267876 
-36.859351366973932 -112.71199882894641 108.66099559454337 -36.859351366973918 -112.71199882894642 108.66099559454334 -119.63721978937555 -1.9203897676218910e-05 3.6508556067084079e-05 2.2985403035024053e-05 0.0000000000000000 -1.5897505835803284e-07 -4.1274886078996964e-07 -6.9304370422936827e-07 -0.0033137293576692229 -1.8771906827201638e-10 -5.0025862939352381e-11 1.0892249796512500e-10 0.0000000000000000 -36.236867317722961 -112.72601430119678 112.03758904139967 95.996160021407249 0.0000000000000000 0.0000000000000000 0.0000000000000000 0.0000000000000000 3.1744137576678626 3.3565502961670823 1.1822240252273490 1.0837076597305362 553.54154332629321 553.54149619613418 1.0873092789982008 
-33.906038278479805 -105.03512308316807 101.91714228379728 -33.906038278479826 -105.03512308316807 101.91714228379728 -155.86025087240938 1.2466912834678499e-06 7.1107919801661589e-05 -1.4603562423685219e-05 0.0000000000000000 -4.0284440000742140e-08 -1.6324254641084322e-07 -5.6479328137382948e-07 -0.0034568197849509318 2.7050760542990346e-10 1.0433864929592823e-10 -5.2422762628833879e-10 0.0000000000000000 -33.380789828628046 -105.09637623893835 105.63342596379557 85.433794965156210 0.0000000000000000 0.0000000000000000 0.0000000000000000 0.0000000000000000 3.1556719981780037 3.3166851845953618 1.1610363354797923 1.0741186088714789 562.97810077212841 562.97819767506780 1.0775048607601148 
-113.29267726112370 -161.18955610192594 121.77664504025599 -113.29267726112373 -161.18955610192594 121.77664504025599 -364.11803180109558 3.0047885595857975e-06 -9.4701032263628696e-06 -2.3957412206160065e-05 -362.91743494885526 5.7912841189278189e-12 7.0377037530988683e-13 1.8759424236236552e-08 -0.0034281056883334808 3.6628283080230674e-12 -1.0716690449943211e-11 -4.1383887689936969e-11 -0.0034239722189773965 -112.21942232800005 -160.66347960400000 124.66427103520003 147.55923210393107 0.0000000000000000 0.0000000000000000 0.0000000000000000 0.0000000000000000 3.1149949264974572 3.2334645241977573 1.1184992794471655 1.0531679105448957 874.16989812607301 874.17022957746906 1.0576448976945907 
-100.49493144964735 -158.60374540142564 113.39693298166276 -100.49493144964738 -158.60374540142575 113.39693298166276 -374.91796668222139 -2.1711071562812099e-05 -1.6295392677231909e-05 -4.5706789981248066e-05 0.0000000000000000 5.2023108043641733e-12 6.9177996664393504e-13 2.0710199777340677e-08 -0.0034666787689649546 1.6569073710199479e-11 1.0692701354273806e-11 -2.9563244866896867e-11 0.0000000000000000 -99.532617471171264 -158.09468895943013 116.58484116745363 117.70414803503969 0.0000000000000000 0.0000000000000000 0.0000000000000000 0.0000000000000000 3.0863266332671961 3.1718697815505785 1.0855017354427685 1.0439332842328268 833.43659533631467 833.43471079460608 1.0418287983391812 
-105.34693754697415 -149.30281664263771 117.86392455461224 -105.34693754697415 -149.30281664263762 117.86392455461224 -353.80679956731467 -1.8589805527011099e-05 -1.8268065636172006e-05 -2.1158018418836283e-05 0.0000000000000000 5.4249105208015180e-12 6.1983751464822500e-13 1.9670297390916858e-08 -0.0034368642284557838 3.3922643806193959e-11 -2.1731521572195414e-11 -4.3167615823538760e-11 0.0000000000000000 -104.34256255272837 -148.85497981259945 120.89176065121424 119.29379793442074 0.0000000000000000 0.0000000000000000 0.0000000000000000 0.0000000000000000 3.0874069708100986 3.1752287411048119 1.0878151971434340 1.0446792477368800 799.91673179470433 799.91708255520530 1.0429264196843713 
-101.50144896090454 -162.81986204697657 121.67660454495933 -101.50144896090448 -162.81986204697657 121.67660454495942 -359.73739691778934 -1.2073855925793183e-05 -2.5140647393209773e-05 -2.1759658635466034e-05 0.0000000000000000 5.2473858591639547e-12 7.4440453801116746e-13 1.8782718491650030e-08 -0.0034396781677139610 2.5821482276817220e-11 -1.0126996883964543e-11 -4.5574636992897871e-11 0.0000000000000000 -100.53040969477119 -162.28305471776312 124.56781543385799 141.51484144144280 0.0000000000000000 0.0000000000000000 0.0000000000000000 0.0000000000000000 3.0896897181425929 3.1805162741009094 1.0908240872482684 1.0453496776878473 814.51955925549180 814.51942657784105 1.0443861750396974 
-79.178050010518518 -149.24489356272855 85.251754345487711 -79.178050010518518 -149.24489356272855 85.251754345487726 -386.03872269387989 -5.3905081561762593e-05 -3.8262157725074504e-05 -1.8468323449999416e-05 -386.36642699574520 4.1988912347079577e-12 6.1939342543837483e-13 2.7262340829281584e-08 -0.0035214774954212239 4.3725947604208321e-11 1.1527468372652233e-11 9.6057351236500112e-12 -0.0035392828123154145 -78.400527573600002 -148.79743798799998 89.448228916799977 108.06316173413846 0.0000000000000000 0.0000000000000000 0.0000000000000000 0.0000000000000000 3.1139260872496526 3.2308267588035471 1.1169263985436451 1.0531679105448950 911.83235471714715 918.20441055301910 1.0568886774925392 
-80.942178583609504 -163.07311860434947 83.514273514858900 -80.942178583609504 -163.07311860434947 83.514273514858900 -470.44795012721710 -3.1325967661036487e-05 -6.2469496497253170e-05 -3.4149009789623689e-05 -473.32272455154111 4.2742753780800058e-12 7.3840933367819162e-13 2.7666823498861962e-08 -0.0034876508166344590 8.7574618799692698e-12 2.7663053477214163e-11 1.1710109849995487e-11 -0.0034836159257411940 -80.149363288800018 -162.53464431600008 87.773009718400019 109.57810873427631 0.0000000000000000 0.0000000000000000 0.0000000000000000 0.0000000000000000 3.1149529803537495 3.2327149432236904 1.1177817533074050 1.0531679105448946 1061.1046889204533 989.03937743527570 1.0573088073397732 
-85.124550001834407 -160.70733585433061 90.982062987608359 -85.124550001834436 -160.70733585433064 90.982062987608373 -431.98628971352173 -2.2627070154269986e-05 -4.3025306493910176e-05 -6.3479417129198119e-05 0.0000000000000000 4.4785564146110346e-12 7.1775918542016370e-13 2.5928338587277722e-08 -0.0034958220310177873 1.8962959105988795e-11 4.9433811347713421e-12 2.4553854410944268e-12 0.0000000000000000 -84.295478612813938 -160.18443337667750 94.973195224810283 106.11323630727971 0.0000000000000000 0.0000000000000000 0.0000000000000000 0.0000000000000000 3.0864529465039583 3.1747656765832102 1.0883207230749503 1.0450247055639201 930.52038170217827 939.20319977004226 1.0431495635926635 
-87.322132449776859 -151.85478323675525 88.556431529660387 -87.322132449776802 -151.85478323675531 88.556431529660372 -416.48481930400607 -2.5729897898826424e-05 -5.5845047113954798e-05 -6.1149278010791600e-05 0.0000000000000000 4.5836945350430369e-12 6.2427840674672552e-13 2.6493022886597828e-08 -0.0035162328796572331 -1.2021938497134322e-11 3.9127153867289356e-11 -3.9306129015711734e-12 0.0000000000000000 -86.474010682800568 -151.39014911596544 92.634484883397832 94.367740677547317 0.0000000000000000 0.0000000000000000 0.0000000000000000 0.0000000000000000 3.0968714846386125 3.1960798480525958 1.0992262598737064 1.0468896796138742 921.18213345819925 922.38387575092327 1.0484392847347304 
-26.338120783996825 -132.76991075771917 136.27659601028677 -26.338120783996825 -132.76991075771915 136.27659601028677 -217.72446093435227 1.9055461051080428e-05 -1.6330539807089298e-05 7.4456732760856095e-05 -229.83883853476013 1.7249812689357213e-12 4.6396220199085292e-13 1.5383875506813638e-08 -0.0033288038326923031 -5.6570066535912984e-11 8.7044246545612286e-12 3.3402375620903258e-11 -0.0033020689297955908 -26.018656529999991 -132.43089511199997 138.64462455200004 49.421240865332216 0.0000000000000000 0.0000000000000000 0.0000000000000000 0.0000000000000000 3.1054029141791806 3.2132286370344398 1.1078446345844382 1.0567217386477183 599.79990686965630 599.79990654430549 1.0525708334798904 
-32.871548069208814 -134.30593925372585 135.19620647703314 -32.871548069208799 -134.30593925372582 135.19620647703320 -207.61780096889558 -1.9559944906634056e-06 1.2460399843826669e-05 4.2411292791264870e-05 -173.23642226276425 2.0327350913618151e-12 4.7339909770016665e-13 1.5635386318990641e-08 -0.0033826177569070462 -6.5369971394602756e-11 -9.2438007570093252e-11 -1.0240911977162958e-10 -0.0032564616145597538 -32.495446914399992 -133.95681332000001 137.60295016000006 48.530522504776933 0.0000000000000000 0.0000000000000000 0.0000000000000000 0.0000000000000000 3.1330105717090269 3.2704575167189360 1.1374844276379588 1.0663668022809927 638.37336301000141 638.37336331955714 1.0664761815872874 
-28.758651176985843 -136.80434780828489 138.00389269963520 -28.758651176985840 -136.80434780828494 138.00389269963517 -219.21868872945376 2.2504047263574144e-05 1.4964412125692034e-05 2.3539817335392661e-05 -230.30063151800417 1.8388068845354155e-12 4.8994142076708158e-13 1.4981768714505964e-08 -0.0033644383406035297 -2.9873985007634337e-11 -3.3917100000631828e-11 -7.5995417042084371e-11 -0.0033574658575190371 -28.418203856399998 -136.43877710800004 140.31002455199999 44.353383947079159 0.0000000000000000 0.0000000000000000 0.0000000000000000 0.0000000000000000 3.1111581737607432 3.2248874522343978 1.1137436372912344 1.0595218266996362 615.74959980264191 615.74959992545359 1.0553252579941399 
-27.094385645621866 -129.82134502573757 141.67370825673487 -27.094385645621859 -129.82134502573760 141.67370825673484 -234.61102092297895 9.4338256478676164e-06 1.1618505420038071e-05 1.4393056041676634e-05 0.0000000000000000 1.7590651157917137e-12 4.3287595730134854e-13 1.4127434333488509e-08 -0.0033268181979777419 -2.7892777353076400e-11 -1.9299120195988991e-11 -1.3234051175940499e-11 0.0000000000000000 -26.768365491316434 -129.50173712462359 143.84833436668455 49.139845408488213 0.0000000000000000 0.0000000000000000 0.0000000000000000 0.0000000000000000 3.1138099882120915 3.2309846869070125 1.1172007784504103 1.0597612373813874 652.98505434903393 652.98505444927696 1.0569623730041888 
-40.511088643231886 -65.371463548621151 152.15432172998297 -40.511088643231901 -65.371463548621151 152.15432172998300 -332.40096883581685 -8.9073917382741413e-06 -4.4248512351470283e-07 1.5421591587432040e-05 -335.07748544216696 2.3881729926955590e-12 -1.4266365866433262e-13 1.1687564693829700e-08 -0.0033195087385200386 5.7866893287888401e-13 -2.0097285062170403e-12 6.1618618575261876e-12 -0.0033179274465478872 -40.068761925200000 -65.476070995999990 153.95338104800004 156.95717166164070 0.0000000000000000 0.0000000000000000 0.0000000000000000 0.0000000000000000 3.1039531058068786 3.2104719930001262 1.1065393620525508 1.0515965211980798 796.77661074873492 796.77661127487534 1.0519245936953310 
-52.977150278228763 -59.512605250285652 147.29046152838052 -52.977150278228770 -59.512605250285667 147.29046152838052 -337.43592032863381 -9.5711586809384066e-06 -2.2467275903521895e-06 1.1771203795254040e-05 -338.74630134817249 2.9748148389074909e-12 -1.9395596240201487e-13 1.2819858064005984e-08 -0.0033204020359522148 -3.2579849827315302e-12 3.2155770422848955e-12 -6.5707533861692421e-12 -0.0033198681129770432 -52.426757905599978 -59.655776269200025 149.26381449600007 118.05125250056595 0.0000000000000000 0.0000000000000000 0.0000000000000000 0.0000000000000000 3.1089563362706327 3.2207842235379016 1.1118500717287245 1.0518406517264889 815.82506257103864 815.82506288914931 1.0544503495995734 
-35.572431807719639 -65.928831369080967 142.86775290123768 -35.572431807719632 -65.928831369080967 142.86775290123771 -323.00002646700091 -2.6112523524500971e-06 1.5138529767018480e-06 6.9897911865267505e-07 -322.80960371024997 2.1559143359439759e-12 -1.3311574065255627e-13 1.3849446034441824e-08 -0.0033177215435978274 -3.6477209987523252e-12 4.3685512652474985e-12 -8.6855876361709766e-12 -0.0033142696339472674 -35.172917262399999 -66.029770167599992 144.99959110400002 155.12084301790807 0.0000000000000000 0.0000000000000000 0.0000000000000000 0.0000000000000000 3.1077676693114968 3.2180664178182590 1.1103163004129686 1.0529253929161142 789.05371750006282 789.05371696628754 1.0537165630161245 
-50.945609620638969 -66.492902158360039 139.96771105397482 -50.945609620638969 -66.492902158360039 139.96771105397480 -329.25933976327286 -9.5521487766169427e-06 5.4377429621667743e-06 7.1199692500814266e-06 0.0000000000000000 2.8800017926045030e-12 -1.2778667013435552e-13 1.4524571767537962e-08 -0.0033236652445885456 -4.4007900338563557e-12 1.9011918011545411e-12 -9.3429645255436352e-12 0.0000000000000000 -50.412828244765279 -66.590128188430739 142.20347059834828 136.07757377940416 0.0000000000000000 0.0000000000000000 0.0000000000000000 0.0000000000000000 3.0960567460438337 3.1935510799399141 1.0974920990639088 1.0488531113390196 774.97120062438273 774.97119952600258 1.0476015720686460 
-95.478546840112529 -159.22992919624915 72.991036257594459 -95.478546840112557 -159.22992919624909 72.991036257594473 -549.87794457551297 -1.3084708086786241e-05 -1.8448820007938545e-05 -2.6496041610060451e-05 -550.02844934695963 4.9573956051318646e-12 7.0621286596406208e-13 3.0116614979647238e-08 -0.0034900627552297424 -1.2223323923117816e-11 1.6117339317746912e-11 -4.5962243348948698e-12 -0.0034866177304076133 -94.559718839999974 -158.71675115199997 77.626866652000004 109.98746742214213 0.0000000000000000 0.0000000000000000 0.0000000000000000 0.0000000000000000 3.1061000610059115 3.2147563058991717 1.1086739811184978 1.0531679105448939 1180.4364346849377 1180.6337013682116 1.0529338999048039 
-90.558315026018278 -158.97792452112307 77.981348395230725 -90.558315026018292 -158.97792452112304 77.981348395230725 -512.81700680050392 -4.7116337555937569e-05 -4.2573857095853628e-05 -5.4296815757462865e-05 -500.48788139750826 4.7246928591704318e-12 6.9888539400153614e-13 2.8954877606679471e-08 -0.0034864385195040107 -5.9994732272567853e-12 2.8605186472601690e-11 5.2712083915889848e-12 -0.0034885879549694607 -89.682139475999989 -158.46640519600001 82.438353807199988 112.88451412247700 0.0000000000000000 0.0000000000000000 0.0000000000000000 0.0000000000000000 3.1072938103884122 3.2170541426465040 1.1097764514239539 1.0531679105448941 1113.3704732429474 1113.5166188368223 1.0534514753135418 
-103.69996432707750 -155.43221979863910 82.306987408910146 -103.69996432707742 -155.43221979863907 82.306987408910132 -507.25314776753527 -1.0830598202850842e-05 -1.0041833915110111e-05 -6.1690957238351777e-05 0.0000000000000000 5.3388682363930684e-12 6.5780714209040515e-13 2.7947885783419221e-08 -0.0035009051448271007 -1.0783691371401006e-11 1.9207239862756704e-11 -9.9332208022572576e-12 0.0000000000000000 -102.70986659571734 -154.94403864466588 86.608986019839278 111.02505284862640 0.0000000000000000 0.0000000000000000 0.0000000000000000 0.0000000000000000 3.1084765563887760 3.2196460349948990 1.1111876908793474 1.0517861969535924 1114.8602492023963 1115.2194269996946 1.0541444915503886 
-101.37702534087335 -167.74312600729951 79.258848210376598 -101.37702534087337 -167.74312600729954 79.258848210376570 -535.84576659710194 -6.2213991038134863e-06 -1.2705046747196200e-05 -5.9023649019408387e-05 0.0000000000000000 5.2365056735226290e-12 7.8592687913214831e-13 2.8657474615556563e-08 -0.0034812065890054960 -1.1075688364814725e-11 9.8871063636499432e-12 -8.8496626265598465e-12 0.0000000000000000 -100.40706467681501 -167.17391327890167 83.670075146830683 105.53983917324770 0.0000000000000000 0.0000000000000000 0.0000000000000000 0.0000000000000000 3.1063985060779138 3.2153723727728667 1.1089916392939647 1.0520526531470773 1153.6427964734785 1153.4182090778149 1.0530887434276119 
-115.71834477633998 -99.928703070861388 92.640563029206191 -115.71834477634000 -99.928703070861403 92.640563029206177 -427.98504634601892 -1.0262674425605607e-05 -1.4292036243883061e-05 -4.4073065245804693e-05 -433.16217941523882 5.9078564017663454e-12 1.6608936448392342e-13 2.5542244763698818e-08 -0.0035290514399227268 -7.6846868903024405e-12 -4.8743160032669130e-12 -4.7226242700214318e-11 -0.0035306172482600161 -114.62406224400000 -99.805851428000011 96.572263865600007 85.211636250682801 0.0000000000000000 0.0000000000000000 0.0000000000000000 0.0000000000000000 3.1091540339906278 3.2205336332568213 1.1113758330183983 1.0480229549465023 972.88815828468989 972.88807725977370 1.0542006595035700 
-112.15091939137109 -91.162795566104137 96.425187531743475 -112.15091939137112 -91.162795566104151 96.425187531743475 -405.31892727750136 -4.5879687526198791e-06 -6.9665982094168780e-07 -4.8120993768131425e-05 -402.18459638348605 5.7428783950541629e-12 8.2267526124724112e-14 2.4661188646746272e-08 -0.0035123218688247740 -3.5576787078390681e-13 1.0828402499750143e-11 -5.1697616725585165e-11 -0.0035055838591299669 -111.08756211600000 -91.097641973600034 100.22126851279998 99.535403830130534 0.0000000000000000 0.0000000000000000 0.0000000000000000 0.0000000000000000 3.1170062508221501 3.2372766992145547 1.1203006848112518 1.0512736575041379 948.79996336963779 948.79991203485577 1.0584799469311788 
-113.98359238233920 -97.764410950965214 104.89421301904665 -113.98359238233917 -97.764410950965186 104.89421301904666 -374.41105213662900 -4.4154691154451889e-06 -2.9236238446298210e-06 -4.2229632243052615e-05 -373.87992133462933 5.8291427240675375e-12 1.5010215292932116e-13 2.2689622625193809e-08 -0.0034718398648046146 -1.5506573841554881e-11 -3.1082959335935553e-11 -6.2318117360202522e-11 -0.0034708240556443979 -112.90434805199999 -97.655804887999992 108.38681131359999 128.09762094244454 0.0000000000000000 0.0000000000000000 0.0000000000000000 0.0000000000000000 3.1086157020497884 3.2202805225919295 1.1116881797840981 1.0512341088140384 881.83336425833613 881.83331723764923 1.0543681304906127 
-108.18363199882064 -103.99078999882634 96.766307881576296 -108.18363199882062 -103.99078999882627 96.766307881576282 -400.05223960316414 -4.8015864350804323e-05 -4.5918820423537420e-06 -5.1238839748105518e-05 0.0000000000000000 5.5625781758550374e-12 2.0383694732117874e-13 2.4581777502419303e-08 -0.0035226981468826843 1.6301423356296199e-11 -2.3325956826046118e-11 -4.7418638841766590e-11 0.0000000000000000 -107.15466629968294 -103.84120130723400 100.55016500991876 102.24201981555134 0.0000000000000000 0.0000000000000000 0.0000000000000000 0.0000000000000000 3.0895793022802516 3.1791926963379349 1.0895917927532042 1.0436209419159825 881.17353674590163 881.17377794473191 1.0437943438751380 
-27.271518820439766 -115.52200553346501 99.550659765250742 -27.271518820439759 -115.52200553346496 99.550659765250700 -139.61091220603086 3.9434527310341885e-05 1.9056117447820815e-05 -5.6606526963363204e-05 0.0000000000000000 2.8778583201967451e-08 -3.2198568869077571e-07 -4.7439045911815069e-07 -0.0036830802089050977 1.4614602796104237e-11 -2.6854306720151906e-10 -5.7401798932305740e-10 0.0000000000000000 -26.889884864405381 -115.37486796036181 103.37575244326078 96.382960025775517 0.0000000000000000 0.0000000000000000 0.0000000000000000 0.0000000000000000 3.1491388496728709 3.3038340031815592 1.1547370561998092 1.0744602289658589 536.84885505195234 536.84849906436682 1.0745764560896485 
-110.61840641212956 -103.76990819018118 150.33312919260155 -110.61840641212960 -103.76990819018123 150.33312919260155 -343.38979301915992 1.0780600797561017e-06 3.6288107001897122e-06 3.3067692410375090e-07 -344.85316814149434 5.6652738056328636e-12 1.9539925233402755e-13 1.2111533997938294e-08 -0.0033120933164364277 -2.4242043797014270e-12 -5.3957086789079113e-12 -3.7328649652262414e-12 -0.0033088213128658495 -109.56833416800004 -103.62177336400003 152.19744990400002 70.302883591683823 0.0000000000000000 0.0000000000000000 0.0000000000000000 0.0000000000000000 3.1023220112720677 3.2067080900830760 1.1043965462315408 1.0509919517933271 812.81712751672251 812.80485376224840 1.0509084315348309 