# For a description of the Tecplot format see the Tecplot User's guide.
#
Variables=x,y,z,s_u,s_v,s_w,s_p,mono_f_vel_u,mono_f_vel_v,mono_f_vel_w,const,u_nu,v_nu,w_nu,p_nu,x_nu,y_nu,z_nu,const,u_ref,v_ref,w_ref,vol_ref,x_ref,y_ref,z_ref,const,I1,I2,I3,J,p1,p2,p3
Zone f=fepoint, n=3174, e=16683, et=brick, c=black
-24.9292 -154.201 111.969 -24.929237656742707 -154.20099818082147 111.96947563200348 -14.783387733695466 -1.3193712767034073e-06 -5.3077040067252791e-06 -6.0185244263433672e-06 -14.124632242923097 7.3111213264032138e-12 4.9868581486478539e-12 5.4345369315811346e-09 1.1304372601767390e-06 3.6624591983658449e-14 7.7608784058381943e-14 -5.6912036886281220e-14 1.0610936147351202e-06 -24.903554063199991 -154.16086777200002 112.24023381839994 89.724962256112903 0.0000000000000000 0.0000000000000000 0.0000000000000000 0.0000000000000000 3.0087422870924403 3.0175001878991030 1.0087579039215588 1.0044383457101380 58.435645766859224 58.435644720463557 1.0043693161121587 
-37.474887244761476 -155.15726632784782 114.66643182521408 -37.474887244761476 -155.15726632784785 114.66643182521409 -12.249626241476852 4.0965652563305352e-06 -4.1118737786871554e-06 -3.0397227319812003e-06 0.0000000000000000 7.1551013374080909e-12 2.7549254629311001e-10 5.5537595094240438e-09 1.2408773455939731e-06 1.7341802077292504e-13 -1.8539090328228016e-13 1.8875987367274657e-13 0.0000000000000000 -37.438273663334591 -155.10473791080037 114.93291110338620 89.036758072416930 0.0000000000000000 0.0000000000000000 0.0000000000000000 0.0000000000000000 3.0106866204734399 3.0214046814804481 1.0107180857179925 1.0051383281580220 61.358249118349924 61.358250038708157 1.0053448584507019 
-31.573117574286105 -147.91574534698614 119.61349070322186 -31.573117574286123 -147.91574534698614 119.61349070322191 -10.531995117100770 1.3257734895759758e-06 -2.8935071168282719e-06 -1.2968970040036723e-06 0.0000000000000000 8.6806265300887198e-12 4.5676795679128198e-12 4.9749526720432877e-09 1.1538900337400063e-06 2.0347824674842588e-14 7.0724465101483773e-14 -6.7342734444030688e-14 0.0000000000000000 -31.542619574254449 -147.87907313389167 119.86135157363466 98.260374494724786 0.0000000000000000 0.0000000000000000 0.0000000000000000 0.0000000000000000 3.0095251924840478 3.0190729735563346 1.0095477936217883 1.0048301003172919 55.151266329281547 55.151272407022120 1.0047624299975799 
-28.676054456289371 -143.00134985956504 111.85341509841152 -28.676054456289389 -143.00134985956495 111.85341509841147 -10.544456130295755 1.2881897084720292e-06 -3.9077761628899824e-06 -2.4426715812569424e-06 0.0000000000000000 8.0835485874453106e-12 4.2426756552416123e-12 5.4415215666736572e-09 1.1753859729820631e-06 3.4101971290051918e-13 2.6513857108468105e-14 9.3331006332966816e-14 0.0000000000000000 -28.647655777685479 -142.96738158566356 112.12452093910819 112.69127588814607 0.0000000000000000 0.0000000000000000 0.0000000000000000 0.0000000000000000 3.0098314847466994 3.0196883384140372 1.0098568721494088 1.0048463165406885 55.903692579396889 55.903691615032201 1.0049163424982588 
-24.287078457116703 -200.49776294627713 73.340075602559040 -24.287078457116703 -200.49776294627713 73.340075602559054 -44.034237348431432 2.4128802926385035e-07 1.0793085774566211e-08 1.6036971546503334e-07 -44.263273382687998 7.1785745750507795e-12 8.1655654460277560e-12 7.7570719847486219e-09 1.3682002509315316e-06 -1.8952765387271709e-14 -6.3933277937880735e-15 -8.9778858728425502e-15 1.3706573009591424e-06 -24.261860196399997 -200.43215969199997 73.726546483199982 142.71380061529433 0.0000000000000000 0.0000000000000000 0.0000000000000000 0.0000000000000000 3.0085803244978466 3.0171776618537365 1.0085973470177747 1.0042843635773422 109.71542192915048 109.71542652321146 1.0042894746505107 
-24.182540271196235 -187.69763823261135 74.928168415378806 -24.182540271196238 -187.69763823261135 74.928168415378792 -43.299527052477110 9.3859860616259753e-07 -1.2971242994274384e-06 -3.8995176626391251e-07 -43.547585210542714 7.1558462280685298e-12 7.3049066795505269e-12 7.6615939148538798e-09 1.3619944301814871e-06 -2.8807779797235814e-14 2.3307111105926633e-14 1.5142075044038849e-14 1.3729284445612676e-06 -24.157397762799999 -187.63907770800003 75.309882232799993 165.73632395326644 0.0000000000000000 0.0000000000000000 0.0000000000000000 0.0000000000000000 3.0085770028984267 3.0171709298186293 1.0085939364589822 1.0042843635773433 108.47737034419831 108.47737345331726 1.0042877734722035 
-34.918464437985804 -195.47416816853516 81.233853710474591 -34.918464437985818 -195.47416816853527 81.233853710474662 -42.898006481659436 3.9234205396166664e-07 -9.9012845849161787e-07 -2.0616513569878211e-06 0.0000000000000000 9.3741793841251031e-12 7.8431289241009966e-12 7.2824709596019943e-09 1.3513148358962183e-06 -2.3478522504040235e-14 2.7175444989373435e-14 -3.1222792411575836e-15 0.0000000000000000 -34.885542273181727 -195.41132893576267 81.596679120775832 139.46796289390394 0.0000000000000000 0.0000000000000000 0.0000000000000000 0.0000000000000000 3.0085167154235388 3.0170502726752075 1.0085335668750373 1.0042277037240099 107.55267290618164 107.55266566767648 1.0042577162635533 
-18.843874870663200 -194.59205388821454 81.049577597089382 -18.843874870663186 -194.59205388821462 81.049577597089396 -43.673249278180329 4.7104354931872052e-07 -6.1473467314626269e-07 -9.7414772088874150e-07 0.0000000000000000 6.0560350137461868e-12 7.7662598574335107e-12 7.2935462114287483e-09 1.3677973027128280e-06 -1.5583273269405323e-14 2.5993899248226885e-14 2.4311445396257351e-15 0.0000000000000000 -18.822600960987238 -194.52970000168264 81.412954998504986 111.95285379220412 0.0000000000000000 0.0000000000000000 0.0000000000000000 0.0000000000000000 3.0085881942071695 3.0171933733860405 1.0086051888054899 1.0042843635773420 109.51860559035684 109.51860585744591 1.0042933799186249 
-22.688041612184406 -103.21998960744385 42.760611208963908 -22.688041612184406 -103.21998960744385 42.760611208963901 -41.511614581758593 -1.3712525563812044e-06 1.5029090806754683e-06 -2.0497951302481037e-06 -41.925475303718308 6.8466074823469986e-12 1.5049766988184386e-12 9.5956123047358216e-09 1.2003766792561027e-06 -1.4030074940234508e-14 -2.8470558070639311e-14 4.4459177879575502e-14 1.2198099262568799e-06 -22.663982073999996 -103.20790935200000 43.238681550399988 69.202643319072678 0.0000000000000000 0.0000000000000000 0.0000000000000000 0.0000000000000000 3.0085658271144280 3.0171486003937988 1.0085827828883385 1.0042843635773429 105.40245036585704 105.40245036629177 1.0042822241707083 
-30.181150014129138 -110.78935192234451 46.521952586507531 -30.181150014129134 -110.78935192234451 46.521952586507545 -40.375206991543138 1.9724430803705194e-07 2.3999778573026838e-06 -2.8291708434404958e-06 -39.964446091597608 8.3943589926360751e-12 2.0200230377298571e-12 9.3694677572031537e-09 1.1879145533591255e-06 3.5722731941943118e-14 -2.3677053956203392e-14 4.5734250833461898e-14 1.2187523052988292e-06 -30.151660686400003 -110.77310694400001 46.988755992800002 74.715282964229786 0.0000000000000000 0.0000000000000000 0.0000000000000000 0.0000000000000000 3.0085903392717555 3.0171976502339475 1.0086073205588204 1.0042843635773431 103.24773652541774 103.24773652622501 1.0042944430779630 
-18.756360807678391 -103.57932628532073 49.550688343653967 -18.756360807678391 -103.57932628532073 49.550688343653967 -39.537698571695081 -1.6551896323460131e-06 1.1925126787229031e-06 -3.0269580769159056e-06 -39.604878871506457 6.0376174546017403e-12 1.5352857873907055e-12 9.1873743057746521e-09 1.1814812983611278e-06 -8.5923430130694599e-15 -3.9842730870430396e-14 3.3810086912789944e-14 1.1884025529521769e-06 -18.735150314000002 -103.56704831999998 50.008419303199993 79.719497061372692 0.0000000000000000 0.0000000000000000 0.0000000000000000 0.0000000000000000 3.0085670064196610 3.0171509495256914 1.0085839527004867 1.0042843635773426 101.86789092101127 101.86789092023059 1.0042828049904067 
-25.517989457501145 -98.497070852640420 50.527432796728107 -25.517989457501134 -98.497070852640405 50.527432796728128 -40.120644070620479 8.4412353974122431e-08 5.4420296096211048e-07 -4.7452356151609465e-06 0.0000000000000000 7.4306784683675337e-12 1.1776621344772311e-12 9.1286479486640831e-09 1.1836672911058622e-06 -3.1944893970162023e-15 -1.5925255963504417e-14 2.0910138813852331e-14 0.0000000000000000 -25.491879232152165 -98.487589184379729 50.982237960580505 72.292163684038698 0.0000000000000000 0.0000000000000000 0.0000000000000000 0.0000000000000000 3.0085680012981517 3.0171530096606194 1.0085850180500762 1.0042843635773426 102.78801359154656 102.78801358973809 1.0042833338770807 
-25.313859625650913 -104.24274741666937 108.47450508512085 -25.313859625650924 -104.24274741666933 108.47450508512080 -10.113401716119320 1.2232578685352732e-06 4.1475194088587226e-06 -4.0005927641805302e-07 0.0000000000000000 1.0588688009124351e-10 -1.4178942220257275e-11 5.8085399174456302e-09 9.5654094652055019e-07 -4.1172495457709463e-13 -1.1363255797999611e-13 7.8514887668112797e-13 0.0000000000000000 -25.283559732051039 -104.23282252886388 108.75695162467670 96.378087069502698 0.0000000000000000 0.0000000000000000 0.0000000000000000 0.0000000000000000 3.0096298060274473 3.0192813299126287 1.0096515322592483 1.0049436224337311 53.855043380062625 53.855077523747248 1.0048140770138796 
-25.945080867407732 -118.02810586418880 110.38652843535094 -25.945080867407714 -118.02810586418889 110.38652843535098 -7.3482471662902631 1.7193518676793363e-06 1.9967873275374538e-07 -1.4737112210509970e-06 0.0000000000000000 9.9531414581203471e-11 7.2559294623682730e-11 5.8923142879183886e-09 1.0129121787917839e-06 -3.6264360921023578e-13 4.0082703902343553e-13 8.1818704364952641e-13 0.0000000000000000 -25.913646985361510 -118.01095136745833 110.66456878241424 88.846747377876298 0.0000000000000000 0.0000000000000000 0.0000000000000000 0.0000000000000000 3.0113950065044013 3.0228225475146404 1.0114275644455011 1.0054356322444149 55.687297111773191 55.687300738004474 1.0056976700977105 
-36.281481594818921 -112.73332697756304 111.76485884761898 -36.281481594818921 -112.73332697756311 111.76485884761902 -7.5181614853211798 -1.3128498188580971e-06 1.9816641818466454e-06 1.1846243464757336e-06 0.0000000000000000 3.1965093449545933e-10 -5.5190177899815372e-11 5.7625492069651158e-09 8.2863369646507576e-07 1.5788450500339215e-13 -1.1380780361891620e-13 -2.9907458588029567e-13 0.0000000000000000 -36.236867317722961 -112.72601430119678 112.03758904139967 95.996160021407249 0.0000000000000000 0.0000000000000000 0.0000000000000000 0.0000000000000000 3.0114582331914104 3.0229494662197460 1.0114912589988878 1.0056007030730285 56.341848005300577 56.341822451404610 1.0057292208469297 
-33.419875750234759 -105.09962831879572 105.33694254566895 -33.419875750234745 -105.09962831879569 105.33694254566898 -9.8578388177938177 -9.2380839899985143e-08 4.6411722519926997e-06 -5.3817815797266917e-07 0.0000000000000000 1.3497189549172492e-10 -1.2669843077668963e-10 6.2011160150372578e-09 1.0122442185781713e-06 -3.0284189487593936e-13 -2.5208367825605110e-13 7.3074557699422973e-13 0.0000000000000000 -33.380789828628046 -105.09637623893835 105.63342596379557 85.433794965156210 0.0000000000000000 0.0000000000000000 0.0000000000000000 0.0000000000000000 3.0108188434048153 3.0216647437271105 1.0108459151764213 1.0052486795138660 56.585694475638249 56.585707730329254 1.0054083219927430 
-112.30842418253324 -160.70718977079630 124.43084032688262 -112.30842418253322 -160.70718977079630 124.43084032688262 -25.399974421007951 2.4855896366709302e-07 -7.7477710942803873e-07 -1.9070111759753837e-06 -25.291215902092102 2.5326394627323001e-11 5.4401344540266905e-12 4.6853103619071143e-09 1.0331639542635027e-06 -1.0041671974516307e-14 3.0690379407532550e-14 5.2237076039813232e-14 1.0315594316611828e-06 -112.21942232800005 -160.66347960400000 124.66427103520003 147.55923210393107 0.0000000000000000 0.0000000000000000 0.0000000000000000 0.0000000000000000 3.0089902821389773 3.0180010181498562 1.0090107494253322 1.0042843635773417 78.786571831210964 78.785436259788881 1.0044953951597650 
-99.612419320745161 -158.13698497926012 116.32713616439472 -99.612419320745161 -158.13698497926006 116.32713616439470 -26.328113779878183 -1.5100302557400568e-06 -1.2671267791975905e-06 -3.6730613586361381e-06 0.0000000000000000 2.2719813010108059e-11 5.2767373803774831e-12 5.1725342897768192e-09 1.0834311361845174e-06 3.3813129895212042e-14 2.6201175249526901e-14 4.1359480934194339e-14 0.0000000000000000 -99.532617471171264 -158.09468895943013 116.58484116745363 117.70414803503969 0.0000000000000000 0.0000000000000000 0.0000000000000000 0.0000000000000000 3.0075247710416160 3.0150540572123545 1.0075292789948351 1.0038582987888791 75.001472505585767 75.005714751447371 1.0037574754776768 
-104.42585239783017 -148.89218927285026 120.64699559994507 -104.42585239783013 -148.89218927285035 120.64699559994507 -24.554267403138770 -1.3244427008551938e-06 -1.4873869618806235e-06 -1.6397626844086793e-06 0.0000000000000000 2.3702374264689130e-11 4.6408432652356169e-12 4.9128191514924432e-09 1.0305099329281289e-06 1.3170209610101349e-15 6.7373715862569444e-14 3.8319145608444595e-14 0.0000000000000000 -104.34256255272837 -148.85497981259945 120.89176065121424 119.29379793442074 0.0000000000000000 0.0000000000000000 0.0000000000000000 0.0000000000000000 3.0076172375250119 3.0152430947947830 1.0076258587039666 1.0039023878026283 72.247776331385069 72.253632252872137 1.0038055582354841 
-100.61093510662182 -162.32765647813434 124.33409492889230 -100.61093510662188 -162.32765647813440 124.33409492889226 -25.113604369844893 -7.9679019311327143e-07 -2.0047335570174664e-06 -1.8043560312139486e-06 0.0000000000000000 2.2922969945826651e-11 5.5573462498514914e-12 4.6911360351842291e-09 1.0431693716261030e-06 2.2978496415690157e-15 6.0591478814891393e-14 5.4316295111417970e-14 0.0000000000000000 -100.53040969477119 -162.28305471776312 124.56781543385799 141.51484144144280 0.0000000000000000 0.0000000000000000 0.0000000000000000 0.0000000000000000 3.0077613509347008 3.0155341613691937 1.0077728139845279 1.0039290758983606 73.690221291722366 73.689332260453327 1.0038787974967860 
-78.465005207656191 -148.83461577085561 89.108993145501188 -78.465005207656191 -148.83461577085561 89.108993145501216 -27.340076263913094 -4.1088519552096161e-06 -2.9644189766220391e-06 -1.3704455631748723e-06 -27.366398719539749 1.8349572729337016e-11 4.6383452634302103e-12 6.8089829330375559e-09 1.1674819517336219e-06 4.0987631402507134e-14 7.0706222731669267e-14 4.6354919053216945e-14 1.1897552388447056e-06 -78.400527573600002 -148.79743798799998 89.448228916799977 108.06316173413846 0.0000000000000000 0.0000000000000000 0.0000000000000000 0.0000000000000000 3.0089677459632673 3.0179536355608603 1.0089859008683706 1.0042843635773431 82.299966846699135 82.298292056958843 1.0044830190023966 
-80.215109114290868 -162.57938457915961 87.428740824066011 -80.215109114290868 -162.57938457915958 87.428740824065997 -34.102583068682677 -2.3604063390227120e-06 -4.9152211040047352e-06 -2.5522679689906351e-06 -34.288961055973637 1.8718152895724760e-11 5.5762200412701191e-12 6.9100093424978581e-09 1.2163674580826395e-06 2.4249825264853550e-15 1.0050439889750754e-13 7.8884143004603987e-14 1.2324448911494003e-06 -80.149363288800018 -162.53464431600008 87.773009718400019 109.57810873427631 0.0000000000000000 0.0000000000000000 0.0000000000000000 0.0000000000000000 3.0090138630536671 3.0180455062892286 1.0090316532945527 1.0042843635773420 94.237518001925068 94.236472887474903 1.0045058413247860 
-84.364231048871744 -160.22787982335683 94.650558973872776 -84.364231048871730 -160.22787982335686 94.650558973872776 -31.029751305511908 -1.7226796950654502e-06 -3.4069294889026222e-06 -4.8577141385605922e-06 0.0000000000000000 1.9569229049720690e-11 5.4217463851813363e-12 6.4758068907266875e-09 1.1871949478997900e-06 1.1469196823762556e-14 8.2704000105325025e-14 4.1481233125237458e-14 0.0000000000000000 -84.295478612813938 -160.18443337667750 94.973195224810283 106.11323630727971 0.0000000000000000 0.0000000000000000 0.0000000000000000 0.0000000000000000 3.0074878775556848 3.0149907229499733 1.0075028535617454 1.0038518268129883 82.588021827777368 82.589209497631188 1.0037442026603822 
-86.544342910308913 -151.42875421427163 92.304822079216933 -86.544342910308899 -151.42875421427155 92.304822079216990 -29.721771720909121 -1.9474885102772250e-06 -4.3946822323722290e-06 -4.7426696879490337e-06 0.0000000000000000 2.0025371118281843e-11 4.8042819722482485e-12 6.6168482915074370e-09 1.1809501712285466e-06 4.5439420771404647e-14 8.3177625200021057e-14 1.9495110916740792e-14 0.0000000000000000 -86.474010682800568 -151.39014911596544 92.634484883397832 94.367740677547317 0.0000000000000000 0.0000000000000000 0.0000000000000000 0.0000000000000000 3.0080603262718366 3.0161372103509962 1.0080768941745542 1.0039592386609528 82.211082760194117 82.206285448871142 1.0040303159105786 
-26.045148754899486 -132.45906293641218 138.45319720622331 -26.045148754899490 -132.45906293641221 138.45319720622325 -14.200937902143270 1.3971144513103858e-06 -1.1696285435745307e-06 5.2480949858827266e-06 -15.101938163446698 7.5393901191600499e-12 3.5118574714942948e-12 3.8422536263738030e-09 8.9939344084621794e-07 5.8924424450038749e-14 -1.7737540911168752e-14 -5.8520571234799341e-14 8.5541833357027648e-07 -26.018656529999991 -132.43089511199997 138.64462455200004 49.421240865332216 0.0000000000000000 0.0000000000000000 0.0000000000000000 0.0000000000000000 3.0084991310310794 3.0170143716272286 1.0085152499502530 1.0044445210656114 57.516181698830451 57.516238727840367 1.0042486596071354 
-32.526635869826137 -133.98582117884990 137.40839314893381 -32.526635869826130 -133.98582117884993 137.40839314893387 -13.398677070722119 -7.6149271033688928e-08 9.3050502251688908e-07 2.7645431269988241e-06 -10.414406921412755 8.8744333062718006e-12 3.6241010192838985e-12 3.9050495059811396e-09 9.5637055145153809e-07 7.4265056512806985e-14 8.5177258253883319e-14 1.6414838594840563e-13 7.5175159665716872e-07 -32.495446914399992 -133.95681332000001 137.60295016000006 48.530522504776933 0.0000000000000000 0.0000000000000000 0.0000000000000000 0.0000000000000000 3.0098242658823375 3.0196733687574868 1.0098491198048227 1.0048998191339147 61.162328080643341 61.162330023109305 1.0049123975294829 
-28.446436144897216 -136.46915131469484 140.12360082790505 -28.446436144897223 -136.46915131469490 140.12360082790502 -14.231778469565191 1.6075891049999268e-06 1.0808494943253170e-06 1.6989542856704912e-06 -15.013470952282743 8.0344593825221205e-12 3.7851249912179688e-12 3.7418212972539777e-09 9.2928660743551592e-07 5.8771886670192105e-14 -1.5342303954317282e-14 5.4279390909606094e-14 8.9839651555733445e-07 -28.418203856399998 -136.43877710800004 140.31002455199999 44.353383947079159 0.0000000000000000 0.0000000000000000 0.0000000000000000 0.0000000000000000 3.0087380005754145 3.0174928755543697 1.0087548838264424 1.0045721368571523 58.592561650551580 58.592600308554204 1.0043678781888352 
-26.795401377621598 -129.52829241595902 143.67254134014314 -26.795401377621598 -129.52829241595904 143.67254134014317 -15.383653972962884 7.7082937759592150e-07 9.1859080634758535e-07 1.0039357591401535e-06 0.0000000000000000 7.6960599351694176e-12 3.3162916857065738e-12 3.5284414279246339e-09 8.9844112005928461e-07 6.2598118650421472e-15 2.6538723368213436e-16 3.5034197375708346e-14 0.0000000000000000 -26.768365491316434 -129.50173712462359 143.84833436668455 49.139845408488213 0.0000000000000000 0.0000000000000000 0.0000000000000000 0.0000000000000000 3.0089610405745053 3.0179425652318286 1.0089815377369256 1.0045940574933825 61.799157400413520 61.799160844494651 1.0044806974114830 
-40.105442770541991 -65.467379467313393 153.80794819359124 -40.105442770541991 -65.467379467313407 153.80794819359124 -22.837910567453697 -6.7025944420561313e-07 -6.5732605782389451e-08 1.2313584247628948e-06 -23.041447106646995 1.0438536320045433e-11 -1.0899128821684201e-12 2.9190619921237722e-09 9.1268372156190322e-07 -3.8597413204740968e-16 -4.6983832234252852e-15 -1.3785413819225048e-14 9.1495597771532949e-07 -40.068761925200000 -65.476070995999990 153.95338104800004 156.95717166164070 0.0000000000000000 0.0000000000000000 0.0000000000000000 0.0000000000000000 3.0084604578788183 3.0169378533246354 1.0084774057142705 1.0042114342012363 72.378816813442000 72.371705861417141 1.0042297641620126 
-52.472400315779595 -59.643880605467032 149.10429204337001 -52.472400315779616 -59.643880605467039 149.10429204336998 -23.232106747195068 -7.6792290294275683e-07 -1.7407499784602301e-07 9.1175723735378977e-07 -23.330903924418543 1.2991837640419224e-11 -1.4817452820281572e-12 3.2018765416808033e-09 9.1119615300419268e-07 1.6783540741037584e-14 -1.0997541699742064e-14 3.3113607369136319e-15 9.1577760634352709e-07 -52.426757905599978 -59.655776269200025 149.26381449600007 118.05125250056595 0.0000000000000000 0.0000000000000000 0.0000000000000000 0.0000000000000000 3.0086802756111624 3.0173786208428934 1.0086983562076344 1.0042198926377892 73.911743415558959 73.885254012757528 1.0043397767036102 
-35.206047820992410 -66.021383456281626 144.82725697812631 -35.206047820992410 -66.021383456281654 144.82725697812631 -22.095488330636655 -1.8698767808319653e-07 1.1108353149273729e-07 3.0759838104102295e-08 -22.061068028643653 9.4320462898367374e-12 -1.0473288902801414e-12 3.4590066366746441e-09 9.0850528923638634e-07 3.1375888568961327e-17 -1.3943514669362301e-15 1.1767278192250946e-14 9.0848723209092477e-07 -35.172917262399999 -66.029770167599992 144.99959110400002 155.12084301790807 0.0000000000000000 0.0000000000000000 0.0000000000000000 0.0000000000000000 3.0086143402528949 3.0172454665115471 1.0086311357336233 1.0042708222208498 71.753604902133830 71.766324542149150 1.0043062985191329 
-50.457010227116420 -66.582049960248909 142.02273565033758 -50.457010227116399 -66.582049960248909 142.02273565033752 -22.595291836534923 -7.6978910702878112e-07 4.0079069750668015e-07 5.4324101231969178e-07 0.0000000000000000 1.2574595011083378e-11 -1.0028644581439039e-12 3.6276227577403115e-09 9.1036163457755688e-07 1.3690105278532016e-14 -1.3405094280267993e-14 1.1582612600340461e-14 0.0000000000000000 -50.412828244765279 -66.590128188430739 142.20347059834828 136.07757377940416 0.0000000000000000 0.0000000000000000 0.0000000000000000 0.0000000000000000 3.0080485009703897 3.0161096253780499 1.0080611281637388 1.0040843264202459 70.426388433828535 70.438035531682104 1.0040224500312471 
-94.635914526116323 -158.75938962377887 77.252114113236303 -94.635914526116295 -158.75938962377884 77.252114113236303 -40.232505452093655 -1.0509146619184220e-06 -1.4636763284906285e-06 -2.0596921104690736e-06 -40.207007310741901 2.1682351226959273e-11 5.3016618872803178e-12 7.5218724582271079e-09 1.2705219324508073e-06 -4.8847539423076458e-15 2.0931235067858731e-14 4.8021333744051529e-14 1.2894903527918869e-06 -94.559718839999974 -158.71675115199997 77.626866652000004 109.98746742214213 0.0000000000000000 0.0000000000000000 0.0000000000000000 0.0000000000000000 3.0085455040801254 3.0171079095383040 1.0085624150896815 1.0042843635773417 103.03911245599853 102.93592757539136 1.0042720762185007 
-89.754798120690637 -158.50890584962895 82.078057171793603 -89.754798120690637 -158.50890584962889 82.078057171793631 -37.333124493273345 -3.6532549590965211e-06 -3.3571463576039327e-06 -4.1162388306129470e-06 -36.301806705063584 2.0680652502991223e-11 5.3018978096730507e-12 7.2317160038082307e-09 1.2387707105001486e-06 1.0698858309361135e-14 4.5649654467385406e-14 1.0758387313134208e-13 1.2716635036284147e-06 -89.682139475999989 -158.46640519600001 82.438353807199988 112.88451412247700 0.0000000000000000 0.0000000000000000 0.0000000000000000 0.0000000000000000 3.0086074043004891 3.0172312937188295 1.0086238984291411 1.0042843635773429 97.847705408737298 97.846246883531265 1.0043026767099905 
-102.79197246967190 -154.98460019750303 86.261219867059154 -102.79197246967183 -154.98460019750294 86.261219867059168 -36.824943409585750 -7.6118451180501879e-07 -7.8385172061353763e-07 -4.9165039419383118e-06 0.0000000000000000 2.3377287085291076e-11 5.0512788396517294e-12 6.9802020830067590e-09 1.2319156948269136e-06 3.7242044047998392e-14 2.1027441855950600e-14 2.0542298487401547e-14 0.0000000000000000 -102.70986659571734 -154.94403864466588 86.608986019839278 111.02505284862640 0.0000000000000000 0.0000000000000000 0.0000000000000000 0.0000000000000000 3.0086630270200616 3.0173435064143583 1.0086804892615893 1.0042098229965317 97.855600851977968 97.800526680228501 1.0043309052043918 
-100.48750064338842 -167.22120750968173 83.313479164481151 -100.48750064338843 -167.22120750968170 83.313479164481137 -39.130110028668220 -4.1227619785841469e-07 -9.9112708093283114e-07 -4.6723444300745784e-06 0.0000000000000000 2.2901362230209887e-11 5.8878735220702075e-12 7.1574371984794985e-09 1.2559931924102958e-06 1.9353722541598298e-14 3.4552006788510285e-14 2.6205758538994338e-14 0.0000000000000000 -100.40706467681501 -167.17391327890167 83.670075146830683 105.53983917324770 0.0000000000000000 0.0000000000000000 0.0000000000000000 0.0000000000000000 3.0085613724297864 3.0171397165308202 1.0085783537159232 1.0042241088771708 100.93074582552693 100.94460548875682 1.0042800238394320 
-114.71480785508993 -99.816058813849480 96.254431946667850 -114.71480785508993 -99.816058813849480 96.254431946667850 -30.402695625487102 -8.0526527920374000e-07 -1.0696015444479980e-06 -3.4930369335633742e-06 -30.814279747321333 2.5832711840164732e-11 1.2741127597415414e-12 6.3793802462797081e-09 1.1454856373306778e-06 1.3954859703666984e-14 4.1362807905086054e-14 7.9148313802884015e-14 1.1481884858795814e-06 -114.62406224400000 -99.805851428000011 96.572263865600007 85.211636250682801 0.0000000000000000 0.0000000000000000 0.0000000000000000 0.0000000000000000 3.0086663689033015 3.0173491526295448 1.0086827888215664 1.0040271938553356 86.304272460787416 86.304177760724770 1.0043319582895369 
-111.17574318707506 -91.103055396185809 99.914399869218855 -111.17574318707510 -91.103055396185795 99.914399869218855 -28.602603918398831 -3.6396216069098056e-07 -2.9745986321457599e-08 -3.8581573494429202e-06 -28.365291773665621 2.5101727120502293e-11 6.7133798520302435e-13 6.1593262712378297e-09 1.1111217966119168e-06 -3.7288166417355172e-15 -6.4180915124587152e-15 6.0489856303432624e-14 1.1003746890038973e-06 -111.08756211600000 -91.097641973600034 100.22126851279998 99.535403830130534 0.0000000000000000 0.0000000000000000 0.0000000000000000 0.0000000000000000 3.0090755182356270 3.0181702315790520 1.0090947258776255 1.0041856950527082 84.666013481928090 84.666065376149518 1.0045371493119775 
-112.99384658951439 -97.664828650030842 108.10447568731281 -112.99384658951436 -97.664828650030827 108.10447568731280 -26.088092617815910 -3.7269211034046687e-07 -2.3799280066132547e-07 -3.4793516188294224e-06 -26.051049107635148 2.5480826650048357e-11 1.1242048958415296e-12 5.6669192671776622e-09 1.0530540422185166e-06 1.1465231542020504e-14 3.8251171570950139e-14 6.5340304823554665e-14 1.0493964859163233e-06 -112.90434805199999 -97.655804887999992 108.38681131359999 128.09762094244454 0.0000000000000000 0.0000000000000000 0.0000000000000000 0.0000000000000000 3.0086749568733304 3.0173686656403849 1.0086937202631963 1.0041954884870552 79.043213933477460 79.043253504380587 1.0043374448130655 
-107.23999537914759 -103.85363019673230 100.24428452152200 -107.23999537914764 -103.85363019673237 100.24428452152200 -28.190404548183441 -3.5885657546449041e-06 -3.9954292071016057e-07 -4.1119815995127171e-06 0.0000000000000000 2.4288585899479020e-11 1.5481713133702615e-12 6.1394987982410498e-09 1.1202465007501351e-06 8.0115229990413324e-14 3.0600999425852095e-14 4.8738183222556841e-14 0.0000000000000000 -107.15466629968294 -103.84120130723400 100.55016500991876 102.24201981555134 0.0000000000000000 0.0000000000000000 0.0000000000000000 0.0000000000000000 3.0076839258580743 3.0153753308360840 1.0076914033272049 1.0038280544307243 78.576165753141865 78.576252122865284 1.0038382426753794 
-26.920024911516350 -115.39026051989327 103.07147691440541 -26.920024911516332 -115.39026051989323 103.07147691440545 -8.9065788346312953 2.6862792363875249e-06 1.0296721406782970e-06 -3.8725287076389447e-06 0.0000000000000000 2.1526952006543312e-11 9.8580183501244548e-11 6.4090181513728267e-09 1.3280061722670580e-06 -5.0537327821865186e-15 3.9981716213969023e-13 9.0902602007796016e-13 0.0000000000000000 -26.889884864405381 -115.37486796036181 103.37575244326078 96.382960025775517 0.0000000000000000 0.0000000000000000 0.0000000000000000 0.0000000000000000 3.0105168652744294 3.0210612896398694 1.0105444421575021 1.0052426460347637 54.828876860772439 54.828873356124930 1.0052583824020929 
-109.65541355076083 -103.63408145604794 152.04674143103483 -109.65541355076083 -103.63408145604791 152.04674143103483 -23.637449278689797 7.4475616259661995e-08 2.3994821835163373e-07 4.2554057893007275e-08 -23.743300864415115 2.4793196141958965e-11 1.5279721932159875e-12 3.0249410754024102e-09 8.8876723985410146e-07 1.2376560301366184e-16 -8.9368016840747140e-16 3.3482679243952424e-16 8.8488758819261970e-07 -109.56833416800004 -103.62177336400003 152.19744990400002 70.302883591683823 0.0000000000000000 0.0000000000000000 0.0000000000000000 0.0000000000000000 3.0083323478815838 3.0166795099618318 1.0083471693049102 1.0041761807267144 73.324421558753301 73.324495996132171 1.0041649224445455 