# For a description of the Tecplot format see the Tecplot User's guide.
#
Variables=x,y,z,s_u,s_v,s_w,s_p,mono_f_vel_u,mono_f_vel_v,mono_f_vel_w,const,u_nu,v_nu,w_nu,p_nu,x_nu,y_nu,z_nu,const,u_ref,v_ref,w_ref,vol_ref,x_ref,y_ref,z_ref,const,I1,I2,I3,J,p1,p2,p3
Zone f=fepoint, n=3174, e=16683, et=brick, c=black
-24.9135 -154.176 112.136 -24.913469406275446 -154.17636207619069 112.13585156067751 -30.028559530410803 -7.2002109307628056e-07 -3.1504862875136637e-06 -2.8257078542418921e-06 -29.840219809053892 1.2079530084529999e-13 8.7676393922819784e-14 8.9697693717027973e-11 1.3097029490920443e-05 -1.0989028742861213e-13 -3.5682866157142700e-13 1.5153521398008702e-13 1.3053594969082506e-05 -24.903554063199991 -154.16086777200002 112.24023381839994 89.724962256112903 0.0000000000000000 0.0000000000000000 0.0000000000000000 0.0000000000000000 3.0033907618913527 3.0067832530299796 1.0033924903123437 1.0017930493760161 58.927187263626621 58.927258866616754 1.0016948008145081 
-37.453881373465542 -155.12953624864511 114.82974850181427 -37.453881373465514 -155.12953624864522 114.82974850181427 -28.613223498578417 2.4792794810564028e-06 -3.0957141256544530e-06 -1.5158656248436493e-06 0.0000000000000000 5.8586630022365071e-11 -2.1964039641838790e-09 4.0273189994971892e-11 1.3445869617985118e-05 7.3575286431313366e-13 -1.1394218289154918e-12 4.4376959946536391e-13 0.0000000000000000 -37.438273663334591 -155.10473791080037 114.93291110338620 89.036758072416930 0.0000000000000000 0.0000000000000000 0.0000000000000000 0.0000000000000000 3.0051384935581118 3.0102843517693105 1.0051458606555668 1.0024313827337525 60.177228431804437 60.177197934798407 1.0025696894300256 
-31.554393554905793 -147.89323223273254 119.76579665210450 -31.554393554905797 -147.89323223273266 119.76579665210456 -27.685620735018031 8.7255818381924460e-07 -2.3533243878736679e-06 -3.3435240665017298e-08 0.0000000000000000 1.4330767475478898e-13 7.0849576205844743e-14 8.2114981481140590e-11 1.3197517607092112e-05 3.1599569990632675e-13 -4.7826144148582587e-13 3.1290646040162313e-13 0.0000000000000000 -31.542619574254449 -147.87907313389167 119.86135157363466 98.260374494724786 0.0000000000000000 0.0000000000000000 0.0000000000000000 0.0000000000000000 3.0041654618349258 3.0083352479505785 1.0041697866178370 1.0021676479978099 57.081085532180637 57.081084443494760 1.0020826387279345 
-28.658619299623258 -142.98049669672565 112.02000465426269 -28.658619299623268 -142.98049669672571 112.02000465426271 -27.369243342951400 1.2435477834894610e-06 -2.5994760593796774e-06 -1.9103234146786032e-06 0.0000000000000000 1.3505039100913940e-13 7.2570421894013748e-14 8.9812296488744892e-11 1.3631362976716726e-05 1.3807750094207481e-12 -4.5764921383660979e-13 3.3305567637614079e-13 0.0000000000000000 -28.647655777685479 -142.96738158566356 112.12452093910819 112.69127588814607 0.0000000000000000 0.0000000000000000 0.0000000000000000 0.0000000000000000 3.0044370186246048 3.0088796130235083 1.0044425962890626 1.0021842243582382 56.905303121336615 56.905321263810556 1.0022188269280867 
-24.271595894263161 -200.45748903220655 73.577554854905372 -24.271595894263161 -200.45748903220652 73.577554854905372 -42.857955553945104 5.1536320098480069e-08 -4.2001360456311082e-09 5.3592234964430982e-08 -42.944074233665106 1.1728855733861285e-13 1.2899056822668342e-13 1.2803502702496417e-10 1.2691434732535331e-05 1.1433481736891061e-15 -1.5581850318431263e-15 9.1093744219579712e-16 1.2690588342878201e-05 -24.261860196399997 -200.43215969199997 73.726546483199982 142.71380061529433 0.0000000000000000 0.0000000000000000 0.0000000000000000 0.0000000000000000 3.0033068623516921 3.0066162551835762 1.0033093933867467 1.0016514094699907 81.536709107831470 81.536568518698402 1.0016533301234645 
-24.167104215914176 -187.66168785847040 75.162724539817248 -24.167104215914176 -187.66168785847043 75.162724539817233 -42.551918024303220 3.5035566377088115e-07 -5.2715910923750901e-07 -1.6358535413073149e-07 -42.640177439739901 1.1671523122980254e-13 1.1909570551971171e-13 1.2646178548791909e-10 1.2696712669151930e-05 7.8159749742389778e-15 -9.1414214161533130e-15 -2.3612908492995870e-15 1.2698603277594149e-05 -24.157397762799999 -187.63907770800003 75.309882232799993 165.73632395326644 0.0000000000000000 0.0000000000000000 0.0000000000000000 0.0000000000000000 3.0033071695484201 3.0066168537056548 1.0033096847014897 1.0016514094699913 81.025088671889264 81.024766082588130 1.0016534746802255 
-34.898252120745539 -195.43559109047965 81.456803255929884 -34.898252120745539 -195.43559109047965 81.456803255929898 -42.430458526153480 9.9718412519920541e-08 -4.1866324108597868e-07 -8.4368282054685888e-07 0.0000000000000000 1.5421735069520714e-13 1.2402925908538975e-13 1.2020245909738492e-10 1.2695401132829760e-05 -1.9474616247174490e-15 -1.2787917437190364e-14 -3.4185089883077942e-15 0.0000000000000000 -34.885542273181727 -195.41132893576267 81.596679120775832 139.46796289390394 0.0000000000000000 0.0000000000000000 0.0000000000000000 0.0000000000000000 3.0032798304332418 3.0065621696391536 1.0032823397628021 1.0016217755127999 80.760492023769999 80.761623378530331 1.0016398246336491 
-18.830813912677286 -194.55377476478048 81.272866330938101 -18.830813912677286 -194.55377476478046 81.272866330938101 -42.687120426476028 1.7264095378659135e-07 -2.5683118856245087e-07 -3.8987606211964230e-07 0.0000000000000000 1.0148782855767813e-13 1.1661158150211293e-13 1.2038875452091702e-10 1.2689296541316157e-05 5.5534187169116786e-15 -4.2031247685101173e-15 3.1412686979037896e-15 0.0000000000000000 -18.822600960987238 -194.52970000168264 81.412954998504986 111.95285379220412 0.0000000000000000 0.0000000000000000 0.0000000000000000 0.0000000000000000 3.0033128504196189 3.0066282280128140 1.0033153781458823 1.0016514094699900 81.420776235760982 81.420763416934719 1.0016563180782654 
-22.673270438376985 -103.21257352458245 43.054376646258717 -22.673270438376985 -103.21257352458245 43.054376646258724 -43.438319915446783 -6.2352703665859307e-07 7.1484919918016717e-07 -9.6177724045280144e-07 -43.614887850537791 1.1474285063761691e-13 2.9476421303797906e-14 1.5837886557790171e-10 1.2210016973924380e-05 -1.0990191587677568e-14 2.1567615614368366e-14 -2.4180131822272039e-14 1.2208699285317274e-05 -22.663982073999996 -103.20790935200000 43.238681550399988 69.202643319072678 0.0000000000000000 0.0000000000000000 0.0000000000000000 0.0000000000000000 3.0033004475864509 3.0066034139192190 1.0033029668838982 1.0016514094699893 82.588099116925378 82.588088183801560 1.0016501225676906 
-30.163045261576848 -110.77937911125252 46.808794699256637 -30.163045261576844 -110.77937911125252 46.808794699256630 -42.912697342018511 3.1731044613228086e-08 1.1516796874373178e-06 -1.2887404297267846e-06 -42.699801093129054 1.3703317994218092e-13 2.9858060468512804e-14 1.5464546310184346e-10 1.2221327412369728e-05 -1.6554029317482041e-14 3.8680668715475641e-14 -1.8840291360718299e-14 1.2237894094625993e-05 -30.151660686400003 -110.77310694400001 46.988755992800002 74.715282964229786 0.0000000000000000 0.0000000000000000 0.0000000000000000 0.0000000000000000 3.0033187119926157 3.0066399553997987 1.0033212439598522 1.0016514094699893 81.593012873722842 81.593020602038663 1.0016592471587693 
-18.743338783470637 -103.57178882813606 49.831955604640051 -18.743338783470641 -103.57178882813606 49.831955604640036 -42.520733561603514 -7.5909864582166963e-07 6.0769450204538411e-07 -1.3809263324656875e-06 -42.553177049314399 9.9372333278724399e-14 2.4813484600372246e-14 1.5164050570781740e-10 1.2234409346781596e-05 -1.6872509393755956e-14 2.7266071773477465e-14 -3.0746721177599889e-14 1.2229052781918443e-05 -18.735150314000002 -103.56704831999998 50.008419303199993 79.719497061372692 0.0000000000000000 0.0000000000000000 0.0000000000000000 0.0000000000000000 3.0033019683357787 3.0066064551249121 1.0033044873397114 1.0016514094699904 80.954102041702086 80.954098915416594 1.0016508809030424 
-25.501959279622223 -98.491250045471858 50.806902210040164 -25.501959279622227 -98.491250045471872 50.806902210040136 -42.842922396894245 -1.8507551044452020e-08 3.1068124743260201e-07 -2.0837892780255805e-06 0.0000000000000000 1.2313197336744075e-13 2.4067553505702218e-14 1.5067075365138294e-10 1.2212690810947716e-05 -1.7800303357507294e-14 1.9457851904332312e-14 -2.2404003465328522e-14 0.0000000000000000 -25.491879232152165 -98.487589184379729 50.982237960580505 72.292163684038698 0.0000000000000000 0.0000000000000000 0.0000000000000000 0.0000000000000000 3.0032977739010822 3.0065980742686387 1.0033003009230574 1.0016514094699898 81.451847327235782 81.451852734844863 1.0016487904213316 
-25.297155730652737 -104.23438574012975 108.64741980577365 -25.297155730652744 -104.23438574012972 108.64741980577358 -27.649451896024104 8.3473732018732598e-07 2.8495436127213750e-06 -8.8482511291974492e-07 0.0000000000000000 8.6355746008645673e-10 1.6977879008376144e-09 1.1187861237888717e-09 1.2604499272738832e-05 -7.6244133280295172e-13 2.4332412991519482e-13 2.9389664457532841e-12 0.0000000000000000 -25.283559732051039 -104.23282252886388 108.75695162467670 96.378087069502698 0.0000000000000000 0.0000000000000000 0.0000000000000000 0.0000000000000000 3.0041578804172109 3.0083189567898789 1.0041610747815104 1.0022321557040157 56.483591225692706 56.483584584202866 1.0020782720971690 
-25.928104587676728 -118.01482850247027 110.55661580054829 -25.928104587676707 -118.01482850247022 110.55661580054824 -25.356597020181916 1.6896062912506558e-06 6.5323708208347848e-07 -1.1581143866331206e-06 0.0000000000000000 1.0241806960795100e-09 1.7837637658806185e-09 2.1842669869416002e-09 1.3200001657808804e-05 -6.1281532002665375e-13 1.4731101025429707e-12 2.3561152852738849e-12 0.0000000000000000 -25.913646985361510 -118.01095136745833 110.66456878241424 88.846747377876298 0.0000000000000000 0.0000000000000000 0.0000000000000000 0.0000000000000000 3.0060983883840877 3.0122061251516201 1.0061077395340983 1.0027946992236716 56.271726066883723 56.271726207119009 1.0030493338758542 
-36.259507010338162 -112.72195834615243 111.93303823513675 -36.259507010338183 -112.72195834615242 111.93303823513678 -25.486703403548596 -4.8528821261969338e-07 2.4659198940819762e-06 1.7138223543360440e-06 0.0000000000000000 1.0883315191657686e-09 3.6759691998215770e-09 3.1012729250958546e-09 1.2674519423883607e-05 3.9535164127493461e-13 3.3779369869884856e-13 -4.6324446131029416e-13 0.0000000000000000 -36.236867317722961 -112.72601430119678 112.03758904139967 95.996160021407249 0.0000000000000000 0.0000000000000000 0.0000000000000000 0.0000000000000000 3.0063632069572650 3.0127366599585104 1.0063734569466620 1.0030020583149302 56.990293002060703 56.990295828218152 1.0031816867560410 
-33.399575765559206 -105.09128926123525 105.51639820789366 -33.399575765559227 -105.09128926123518 105.51639820789373 -27.637274092866530 1.7320455416608812e-07 3.3390614296946027e-06 -1.6219415579668508e-06 0.0000000000000000 9.1286611154280404e-10 3.6031886194913533e-09 1.3761676834323140e-09 1.2956253624229306e-05 -7.5520776730366449e-13 2.8485167762056922e-13 2.2358082420064805e-12 0.0000000000000000 -33.380789828628046 -105.09637623893835 105.63342596379557 85.433794965156210 0.0000000000000000 0.0000000000000000 0.0000000000000000 0.0000000000000000 3.0052399332024224 3.0104855036204108 1.0052455700345171 1.0025001123852866 58.056925966661090 58.056918738590362 1.0026193356658233 
-112.25378215855021 -160.68035604858295 124.57427920640168 -112.25378215855018 -160.68035604858298 124.57427920640164 -36.365943037645302 8.2436103659041966e-08 -2.6368217213712307e-07 -7.5846117235028592e-07 -36.329221016555103 4.2324347152011832e-13 1.0126274818667012e-13 7.7337969361934711e-11 1.2311949432583283e-05 -6.9473280560589759e-15 1.7690900000062336e-14 1.6972154544857087e-13 1.2300702186361656e-05 -112.21942232800005 -160.66347960400000 124.66427103520003 147.55923210393107 0.0000000000000000 0.0000000000000000 0.0000000000000000 0.0000000000000000 3.0036319143876589 3.0072673968454002 1.0036354834301149 1.0016514094699889 70.925961683216784 70.925982007177112 1.0018161685554132 
-99.563425571107246 -158.11101940351344 116.48549115184120 -99.563425571107317 -158.11101940351355 116.48549115184129 -36.648262279040956 -7.8388116445997266e-07 -4.9499069196998045e-07 -1.5696150341594047e-06 0.0000000000000000 3.7573286496006553e-13 8.8044155299726867e-14 8.5374152192230213e-11 1.2447130862493540e-05 -7.3384381905721496e-14 -5.2415978252690390e-14 7.1645641355968963e-14 0.0000000000000000 -99.532617471171264 -158.09468895943013 116.58484116745363 117.70414803503969 0.0000000000000000 0.0000000000000000 0.0000000000000000 0.0000000000000000 3.0024827392655014 3.0049640547658538 1.0024813138897388 1.0013175984625757 68.952178420814391 68.952159779830950 1.0012398295325544 
-104.37471721938397 -148.86934634194279 120.79739922486895 -104.37471721938392 -148.86934634194270 120.79739922486895 -36.033885882792134 -6.8664845322312555e-07 -5.1480642326517799e-07 -7.3402230385423166e-07 0.0000000000000000 3.9479053706714673e-13 6.2876787110255350e-14 8.1092549342187681e-11 1.2361249490932034e-05 -1.0737835247774695e-13 4.2573180338541207e-14 1.2383442010982830e-13 0.0000000000000000 -104.34256255272837 -148.85497981259945 120.89176065121424 119.29379793442074 0.0000000000000000 0.0000000000000000 0.0000000000000000 0.0000000000000000 3.0025590810821807 3.0051181683978561 1.0025590870171615 1.0013353960724660 68.066949454064101 68.066786124273392 1.0012786495468224 
-100.56149713132727 -162.30027540558879 124.47771188312497 -100.56149713132724 -162.30027540558879 124.47771188312491 -36.160235966767452 -4.8241678916122123e-07 -7.8096445758891124e-07 -6.5905450917467504e-07 0.0000000000000000 3.7894210339062262e-13 1.0347625534201654e-13 7.7430423184310371e-11 1.2334972086882124e-05 -8.8257388715489266e-14 -1.2846003629403991e-14 1.9429905081016444e-13 0.0000000000000000 -100.53040969477119 -162.28305471776312 124.56781543385799 141.51484144144280 0.0000000000000000 0.0000000000000000 0.0000000000000000 0.0000000000000000 3.0026355965855580 3.0052720508755661 1.0026364541348263 1.0013622826504156 68.417176254030224 68.417224631803762 1.0013173027095155 
-78.425419645704196 -148.81179228673795 89.317447291395865 -78.425419645704196 -148.81179228673795 89.317447291395865 -36.740760061441847 -1.9483354492019274e-06 -1.2874951244550245e-06 -6.5145139562813878e-07 -36.720681353803116 2.9924543745729620e-13 7.1085498598577601e-14 1.1237916153206129e-10 1.2740901537214402e-05 -1.8728840301956220e-13 -3.2117879530561885e-14 -5.4030931190557127e-14 1.2809393508684920e-05 -78.400527573600002 -148.79743798799998 89.448228916799977 108.06316173413846 0.0000000000000000 0.0000000000000000 0.0000000000000000 0.0000000000000000 3.0035163202619897 3.0070355868956966 1.0035192674718851 1.0016514094699898 71.342665089432884 71.342278817368452 1.0017581257901820 
-80.174744955677582 -162.55191847959125 87.640287731550856 -80.174744955677596 -162.55191847959125 87.640287731550856 -39.633094003108553 -1.1541138048235360e-06 -2.0278323181955486e-06 -1.1661183745471357e-06 -39.729456716302380 3.0960173660887769e-13 1.0242154346862264e-13 1.1405779098971892e-10 1.2637076711299444e-05 -7.6680560490018326e-14 -4.9010544402700360e-14 -5.7623210054024326e-14 1.2631191344916023e-05 -80.149363288800018 -162.53464431600008 87.773009718400019 109.57810873427631 0.0000000000000000 0.0000000000000000 0.0000000000000000 0.0000000000000000 3.0035722185776570 3.0071472262116687 1.0035750082657042 1.0016514094699889 76.561562850736649 76.564821921498009 1.0017859717489137 
-84.322021004152305 -160.20120799922981 94.848813019624899 -84.322021004152262 -160.20120799922975 94.848813019624842 -38.344491050829468 -9.0935859520877252e-07 -1.4148401075954641e-06 -2.1469496922009865e-06 0.0000000000000000 3.2992575685342201e-13 9.1451152206545316e-14 1.0688827600802142e-10 1.2661853240719057e-05 -8.4043710948934391e-14 -4.6519042047093768e-14 -1.4265942737429926e-14 0.0000000000000000 -84.295478612813938 -160.18443337667750 94.973195224810283 106.11323630727971 0.0000000000000000 0.0000000000000000 0.0000000000000000 0.0000000000000000 3.0026612750575041 3.0053242330533103 1.0026629581507152 1.0013940815197755 72.181054767168675 72.179202522665733 1.0013305176488636 
-86.501162964425248 -151.40505449953949 92.507393812780521 -86.501162964425248 -151.40505449953943 92.507393812780506 -37.880542963380833 -1.0004927537728012e-06 -1.8365338333436202e-06 -2.0819673762215003e-06 0.0000000000000000 3.2975575395277618e-13 8.9681734261048961e-14 1.0921347159964512e-10 1.2676101297074665e-05 -4.7019008699016079e-14 -9.0946398501885764e-14 -2.7519493892648948e-14 0.0000000000000000 -86.474010682800568 -151.39014911596544 92.634484883397832 94.367740677547317 0.0000000000000000 0.0000000000000000 0.0000000000000000 0.0000000000000000 3.0030013256188268 3.0060048853945891 1.0030035603355831 1.0014498436342025 71.944414755092041 71.944606885228708 1.0015006524238137 
-26.028884051249058 -132.44177067625785 138.57082579153430 -26.028884051249062 -132.44177067625785 138.57082579153433 -30.445811752392018 8.5790447358507107e-07 -7.6793317034483964e-07 3.5979546677460536e-06 -31.005499346448122 1.2319615813605189e-13 7.1321420991310447e-14 6.3416355500223176e-11 1.1820717961319628e-05 2.8945613860955975e-13 -1.2049545750690313e-13 6.0450763260609714e-13 1.1645241016402653e-05 -26.018656529999991 -132.43089511199997 138.64462455200004 49.421240865332216 0.0000000000000000 0.0000000000000000 0.0000000000000000 0.0000000000000000 3.0032788711386025 3.0065602901517461 1.0032814197594926 1.0018125955905857 59.800980501738643 59.800980462810692 1.0016394238884474 
-32.507487643540983 -133.96801322057763 137.52794485603815 -32.507487643540991 -133.96801322057763 137.52794485603815 -30.063535444332576 -1.9963578356503237e-07 3.5880714553562005e-07 2.3888569502887091e-06 -28.801502936534352 1.4620466295967025e-13 4.7989390239422391e-14 6.4467098326304040e-11 1.2016821256455932e-05 1.4481335867498587e-13 2.2043839909532106e-13 1.2551522057390415e-12 1.1379735135504260e-05 -32.495446914399992 -133.95681332000001 137.60295016000006 48.530522504776933 0.0000000000000000 0.0000000000000000 0.0000000000000000 0.0000000000000000 3.0043892482410262 3.0087828534437828 1.0043936062810783 1.0022143021054404 61.601133413988542 61.601133409806913 1.0021942292411812 
-28.429103142194617 -136.45050455389205 140.23815477966531 -28.429103142194609 -136.45050455389202 140.23815477966534 -30.707517792431865 1.2209210527943381e-06 3.6760632599629784e-07 1.1072545459955097e-06 -31.316418702861036 1.3097205611711793e-13 6.6783384378155120e-14 6.1762622793892787e-11 1.1723761942126725e-05 4.0419823381300178e-13 -1.6252362812773390e-13 4.0208124143496017e-13 1.1550777888975195e-05 -28.418203856399998 -136.43877710800004 140.31002455199999 44.353383947079159 0.0000000000000000 0.0000000000000000 0.0000000000000000 0.0000000000000000 3.0035648486571298 3.0071323865530251 1.0035675383772593 1.0019517679494507 61.035225137408844 61.035225132131274 1.0017821202287993 
-26.778802897110854 -129.51199009173524 143.78056292366202 -26.778802897110847 -129.51199009173524 143.78056292366196 -31.309611395428359 2.6874528285289834e-07 3.2216009303083199e-07 8.3040063191630424e-07 0.0000000000000000 1.2610962621395494e-13 5.4428683782248306e-14 5.8242161093957634e-11 1.1619858666693214e-05 2.9454201869948168e-14 -5.0733887951159516e-14 2.9550944298796622e-13 0.0000000000000000 -26.768365491316434 -129.50173712462359 143.84833436668455 49.139845408488213 0.0000000000000000 0.0000000000000000 0.0000000000000000 0.0000000000000000 3.0035585164758127 3.0071203419730264 1.0035618262639001 1.0019377403061673 62.236308536466602 62.236308538627945 1.0017792930604015 
-40.082922839452841 -65.472715206878803 153.89731400939166 -40.082922839452849 -65.472715206878789 153.89731400939169 -35.413255010611252 -3.8845897483987680e-07 -7.2344916985190382e-09 6.0635341814850874e-07 -35.521056932669872 1.7566894119913634e-13 -1.2909812108219400e-14 4.8172854594241692e-11 1.1717904327765322e-05 3.7244137138593673e-14 -4.5100656592767054e-14 6.9334546679833192e-14 1.1708142935359841e-05 -40.068761925200000 -65.476070995999990 153.95338104800004 156.95717166164070 0.0000000000000000 0.0000000000000000 0.0000000000000000 0.0000000000000000 3.0031709996097957 3.0063444885240860 1.0031734895857176 1.0015869136949518 68.269451975887122 68.269451346298666 1.0015854930617660 
-52.444378498877505 -59.651183367262519 149.20231565829334 -52.444378498877505 -59.651183367262540 149.20231565829337 -35.614836217830643 -3.6551357854964747e-07 -1.2265263115312446e-07 5.3279874607071911e-07 -35.658690097076871 2.1674892783374311e-13 -2.3262641812848983e-14 5.2847615172879608e-11 1.1781184237989317e-05 2.2644915043461155e-15 -2.9875490009516886e-14 8.1576802164714396e-14 1.1775401652930055e-05 -52.426757905599978 -59.655776269200025 149.26381449600007 118.05125250056595 0.0000000000000000 0.0000000000000000 0.0000000000000000 0.0000000000000000 3.0033907893898681 3.0067844617089099 1.0033936730471014 1.0016004785782910 69.107499223559657 69.107500711296424 1.0016954087750884 
-35.185707561941946 -66.026532068110313 144.93315313076366 -35.185707561941953 -66.026532068110313 144.93315313076366 -35.001274044816554 -1.3984512012958890e-07 6.9981361625547274e-08 1.1762702778204163e-07 -34.996120293760740 1.5408724643450886e-13 -1.7128659601794993e-14 5.7087834459679250e-11 1.1765937818491155e-05 3.4250369961530361e-14 -5.5559414945474133e-14 1.1668757347191124e-13 1.1739296338161616e-05 -35.172917262399999 -66.029770167599992 144.99959110400002 155.12084301790807 0.0000000000000000 0.0000000000000000 0.0000000000000000 0.0000000000000000 3.0033744599833225 3.0067514215563338 1.0033769621331456 1.0016494988819955 68.042535909621151 68.042535987191371 1.0016870606697137 
-50.429885028974091 -66.587009193921418 142.13379395376072 -50.429885028974091 -66.587009193921418 142.13379395376072 -35.268181216128902 -3.7808199442094371e-07 1.3993288121145188e-07 3.5710666192993340e-07 0.0000000000000000 2.0865470809483533e-13 -1.4311468676808659e-14 5.9885679748461484e-11 1.1823059460466055e-05 4.0212482146928639e-14 -2.1293238053402372e-14 1.0692114657536317e-13 0.0000000000000000 -50.412828244765279 -66.590128188430739 142.20347059834828 136.07757377940416 0.0000000000000000 0.0000000000000000 0.0000000000000000 0.0000000000000000 3.0029124289202973 3.0058260183064927 1.0029135891414638 1.0014923683146686 67.478385908643091 67.478389727645904 1.0014557162290740 
-94.589134753604753 -158.73321381638263 77.482392659896533 -94.589134753604768 -158.73321381638263 77.482392659896519 -42.481805799878387 -4.7478509343378666e-07 -5.6640089410278782e-07 -8.7633178620713670e-07 -42.475981408457237 3.5949585322492261e-13 9.6974511754055458e-14 1.2415052319525444e-10 1.2530103526104876e-05 -5.6692864834513455e-15 -6.8741655804718661e-15 -1.0144876203917665e-14 1.2526011913191635e-05 -94.559718839999974 -158.71675115199997 77.626866652000004 109.98746742214213 0.0000000000000000 0.0000000000000000 0.0000000000000000 0.0000000000000000 3.0032864909394101 3.0065754862936180 1.0032889959070812 1.0016514094699895 80.871667035358996 80.871657541596079 1.0016431456343395 
-89.710189888350058 -158.48281464895518 82.299452831557957 -89.710189888350058 -158.48281464895518 82.299452831557957 -41.197551821727529 -1.6818170247423014e-06 -1.3610846603536680e-06 -1.8333705667721055e-06 -40.750592696541169 3.4561806541710821e-13 8.8814372523060570e-14 1.1936143740065575e-10 1.2559040688771820e-05 -5.5132554429564874e-14 -3.6312916932027999e-14 -5.7511502675088035e-14 1.2571854631972383e-05 -89.682139475999989 -158.46640519600001 82.438353807199988 112.88451412247700 0.0000000000000000 0.0000000000000000 0.0000000000000000 0.0000000000000000 3.0033219388917591 3.0066462870142416 1.0033243486231103 1.0016514094699891 78.549140573245353 78.549141990981042 1.0016607865120988 
-102.74156418147044 -154.95969941305975 86.474915775575255 -102.74156418147048 -154.95969941305975 86.474915775575212 -41.096656118224956 -3.9965926366317470e-07 -2.8625014304659465e-07 -2.0700574964716816e-06 0.0000000000000000 3.9063413961870630e-13 8.5157575435701460e-14 1.1520748244286948e-10 1.2542931912900602e-05 -1.2672922509294456e-14 -8.9999582426114601e-15 -8.2268324739508828e-15 0.0000000000000000 -102.70986659571734 -154.94403864466588 86.608986019839278 111.02505284862640 0.0000000000000000 0.0000000000000000 0.0000000000000000 0.0000000000000000 3.0033703318049576 3.0067433220319466 1.0033729907961233 1.0016059001040245 78.766176312306413 78.766157029117778 1.0016850935691535 
-100.43811758235385 -167.19217352642195 83.532600840964605 -100.43811758235383 -167.19217352642195 83.532600840964591 -41.996066311741025 -2.5811063705119701e-07 -3.7335835045742675e-07 -1.9659598364822187e-06 0.0000000000000000 3.8428852114358314e-13 9.0098067895283407e-14 1.1813661160431366e-10 1.2534457484444450e-05 -1.1628072285981352e-14 1.4180108527998979e-16 -1.6724551007943067e-14 0.0000000000000000 -100.40706467681501 -167.17391327890167 83.670075146830683 105.53983917324770 0.0000000000000000 0.0000000000000000 0.0000000000000000 0.0000000000000000 3.0033000435995461 3.0066026203766492 1.0033025773346269 1.0016151781635612 79.960124834405335 79.960190122518227 1.0016499301055501 
-114.65909526479014 -99.809792487809446 96.449733818712204 -114.65909526479011 -99.809792487809460 96.449733818712204 -38.730231037152571 -3.4302153663863470e-07 -4.4880801647911250e-07 -1.4973856452353462e-06 -38.906136960614333 4.2915542425155896e-13 1.6396606294932781e-14 1.0529643823531387e-10 1.2442368736773326e-05 1.9279655435898176e-14 4.1492172775129174e-14 5.4373608640362005e-14 1.2442718885703640e-05 -114.62406224400000 -99.805851428000011 96.572263865600007 85.211636250682801 0.0000000000000000 0.0000000000000000 0.0000000000000000 0.0000000000000000 3.0033728653423997 3.0067476701049634 1.0033748044072885 1.0014733374979423 74.481136211648078 74.482967879617917 1.0016859574392396 
-111.12160507696710 -91.099732089766775 100.10296501007844 -111.12160507696710 -91.099732089766789 100.10296501007841 -37.966471293078214 -1.6170430296364338e-07 -1.7362761312817233e-08 -1.6618928786287976e-06 -37.853269137409832 4.0740891563140202e-13 5.0237591864288326e-15 1.0166523178867237e-10 1.2402026088062690e-05 4.2442557739948398e-15 9.7889921445969766e-16 5.4157060482438791e-14 1.2388409774744277e-05 -111.08756211600000 -91.097641973600034 100.22126851279998 99.535403830130534 0.0000000000000000 0.0000000000000000 0.0000000000000000 0.0000000000000000 3.0036957486623588 3.0073949349822788 1.0036991873964456 1.0015883245650239 73.805055941636965 73.799179312064112 1.0018479417969883 
-112.93889963072398 -97.659288952029158 108.27796573999211 -112.93889963072394 -97.659288952029129 108.27796573999215 -36.926304487292342 -1.3418286150042564e-07 -5.8580340075236651e-08 -1.3693504833097576e-06 -36.897500236241250 4.2313244921765580e-13 2.2790797027383292e-14 9.3535040823766735e-11 1.2360782640715546e-05 4.1735349385930513e-14 9.1755884271137035e-14 1.2987097867577669e-13 1.2369835639722381e-05 -112.90434805199999 -97.655804887999992 108.38681131359999 128.09762094244454 0.0000000000000000 0.0000000000000000 0.0000000000000000 0.0000000000000000 3.0033887959784571 3.0067806786777638 1.0033918834486675 1.0015799900986833 71.460550533005758 71.443308940229016 1.0016945122819956 
-107.18760822799202 -103.84600008701959 100.43224245918429 -107.18760822799199 -103.84600008701956 100.43224245918422 -37.762986774192406 -1.5990986031634701e-06 -1.2959326430927089e-07 -1.7731446668437418e-06 0.0000000000000000 4.0283965399567911e-13 3.0416641427777329e-14 1.0133421879388037e-10 1.2465004501183811e-05 -6.7802032858401732e-14 7.7493671382970066e-14 2.2587342040057818e-14 0.0000000000000000 -107.15466629968294 -103.84120130723400 100.55016500991876 102.24201981555134 0.0000000000000000 0.0000000000000000 0.0000000000000000 0.0000000000000000 3.0026376786476008 3.0052748385631487 1.0026371589518954 1.0013126296147823 71.115520134861470 71.113383616867679 1.0013176547018476 
-26.903327156961257 -115.37772900550551 103.25510396005564 -26.903327156961264 -115.37772900550547 103.25510396005571 -26.531608952080965 1.7267213474741201e-06 1.3899698519361481e-06 -2.7528319459360695e-06 0.0000000000000000 1.1410213780969635e-09 2.0852450708607358e-09 6.5146623329235418e-10 1.4049080029129169e-05 7.8078703557448060e-13 1.3503248408992268e-12 2.2810537375076651e-12 0.0000000000000000 -26.889884864405381 -115.37486796036181 103.37575244326078 96.382960025775517 0.0000000000000000 0.0000000000000000 0.0000000000000000 0.0000000000000000 3.0050678434970211 3.0101421037659706 1.0050742613872428 1.0025544923922740 56.284273448741509 56.284275797291222 1.0025339044010986 
-109.60195181396669 -103.62652550403041 152.13934901746583 -109.60195181396669 -103.62652550403044 152.13934901746583 -36.070844840268116 5.5486426003133004e-08 1.5810852432433217e-07 5.4134219175214569e-08 -36.133899313134641 4.0385967139955353e-13 2.9046209881755664e-14 4.9924647749222111e-11 1.1814442810129348e-05 1.4093818327754587e-14 -1.9100993377478099e-16 7.1202557885988176e-14 1.1805085250221953e-05 -109.56833416800004 -103.62177336400003 152.19744990400002 70.302883591683823 0.0000000000000000 0.0000000000000000 0.0000000000000000 0.0000000000000000 3.0031405861848746 3.0062830684595379 1.0031424825374842 1.0015675626667255 69.383720047064898 69.384228221340635 1.0015700178734581 