# For a description of the Tecplot format see the Tecplot User's guide.
#
Variables=x,y,z,s_u,s_v,s_w,s_p,mono_f_vel_u,mono_f_vel_v,mono_f_vel_w,const,u_nu,v_nu,w_nu,p_nu,x_nu,y_nu,z_nu,const,u_ref,v_ref,w_ref,vol_ref,x_ref,y_ref,z_ref,const,I1,I2,I3,J,p1,p2,p3
Zone f=fepoint, n=3174, e=16683, et=brick, c=black
-24.9080 -154.168 112.194 -24.907962880858523 -154.16775751024312 112.19384328674602 -12.042927413048780 -3.1075348820276116e-07 -1.3553179323818109e-06 -1.2424513184831183e-06 -11.958489328004047 6.8291001326103995e-11 6.1518713734276518e-11 1.2274005256607268e-08 2.2422616786635949e-05 -5.8801455796575595e-14 -1.9016107526600267e-13 4.1129673969772368e-13 2.2168681805609131e-05 -24.903554063199991 -154.16086777200002 112.24023381839994 89.724962256112903 0.0000000000000000 0.0000000000000000 0.0000000000000000 0.0000000000000000 3.0015073932085534 3.0030151353438153 1.0015077420683967 1.0007943622336128 23.940095539615825 23.940096026716887 1.0007535847751119 
-37.445158360490559 -155.11565862162149 114.88702922588503 -37.445158360490588 -155.11565862162155 114.88702922588494 -11.430201967382285 1.0666614274721786e-06 -1.3151941084955993e-06 -6.6505233458790321e-07 0.0000000000000000 2.5194679260338406e-10 -1.0610805185968081e-08 9.9377799920374506e-09 2.3219682326671444e-05 1.1787185594437343e-12 -2.1842652508833033e-12 1.2208005668791048e-12 0.0000000000000000 -37.438273663334591 -155.10473791080037 114.93291110338620 89.036758072416930 0.0000000000000000 0.0000000000000000 0.0000000000000000 0.0000000000000000 3.0022570096427041 3.0045154404262129 1.0022584309928753 1.0010678951708505 24.468375572862630 24.468375143962714 1.0011285901282354 
-31.547854827680567 -147.88536915619588 119.81888416864977 -31.547854827680567 -147.88536915619585 119.81888416864970 -11.026466301937536 3.7366657697905294e-07 -9.9454357561631595e-07 -3.8617218378490900e-08 0.0000000000000000 8.1093743265620009e-11 5.6229597367174478e-11 1.1236022098848331e-08 2.2425117444457428e-05 4.9871431287060334e-13 -4.0149869554023923e-13 6.0468168319389904e-13 0.0000000000000000 -31.542619574254449 -147.87907313389167 119.86135157363466 98.260374494724786 0.0000000000000000 0.0000000000000000 0.0000000000000000 0.0000000000000000 3.0018364492551188 3.0036737404470704 1.0018372912386544 1.0009542394164943 23.124984584243183 23.124981672560313 1.0009182082311767 
-28.652530663884676 -142.97321338560346 112.07807084187651 -28.652530663884697 -142.97321338560337 112.07807084187651 -10.902926980199211 5.2122268960154302e-07 -1.1110858570794274e-06 -8.1403780546788573e-07 0.0000000000000000 7.5510374862586271e-11 5.2075123727068906e-11 1.2289754713901146e-08 2.3328679780696039e-05 3.0133429637052481e-12 -4.1090766244388644e-13 1.0697225042573868e-12 0.0000000000000000 -28.647655777685479 -142.96738158566356 112.12452093910819 112.69127588814607 0.0000000000000000 0.0000000000000000 0.0000000000000000 0.0000000000000000 3.0019534993221559 3.0039080749591407 1.0019545757974309 1.0009610405821079 23.070396390874624 23.070398833988971 1.0009768092130287 
-24.266189135533079 -200.44342270334587 73.660330241097370 -24.266189135533075 -200.44342270334590 73.660330241097370 -17.681105898756122 2.4589637044646402e-08 -1.5269826056586142e-09 2.4122480346211965e-08 -17.719509981781712 6.7052456469152144e-11 1.0059337564316539e-10 1.7519484779571212e-08 2.2679625897608479e-05 -1.6030389053048607e-14 -1.3500112053064779e-14 -1.1683681565846965e-14 2.2680688202066748e-05 -24.261860196399997 -200.43215969199997 73.726546483199982 142.71380061529433 0.0000000000000000 0.0000000000000000 0.0000000000000000 0.0000000000000000 3.0014695425333566 3.0029395849892571 1.0014700425046348 1.0007338894948457 33.873456539537671 33.873456364039249 1.0007347513583271 
-24.161713698372356 -187.64913159725270 75.244481045247767 -24.161713698372356 -187.64913159725273 75.244481045247767 -17.545959459313213 1.5611929175812053e-07 -2.3310173006458903e-07 -7.2070989320148421e-08 -17.585513662520693 6.6850767109494225e-11 8.9773065717335663e-11 1.7303837210325135e-08 2.2674219103935180e-05 -2.6714169394612712e-14 3.7139006347417589e-14 3.5331118518387581e-14 2.2699833252982008e-05 -24.157397762799999 -187.63907770800003 75.309882232799993 165.73632395326644 0.0000000000000000 0.0000000000000000 0.0000000000000000 0.0000000000000000 3.0014696444679454 3.0029397856964635 1.0014701412763209 1.0007338894948457 33.647544848560592 33.647544629815918 1.0007348005391072 
-34.891193656089015 -195.42211740958882 81.534514190860207 -34.891193656089015 -195.42211740958894 81.534514190860179 -17.490430529917930 4.6640816083700158e-08 -1.8453586035033680e-07 -3.7354874320514444e-07 0.0000000000000000 8.7534604131106475e-11 9.6330944956979359e-11 1.6447585127199460e-08 2.2672044246070948e-05 -1.4296319223104808e-14 2.7222205939186091e-14 -6.8795404208676433e-15 0.0000000000000000 -34.885542273181727 -195.41132893576267 81.596679120775832 139.46796289390394 0.0000000000000000 0.0000000000000000 0.0000000000000000 0.0000000000000000 3.0014574500245215 3.0029153955777197 1.0014579456020973 1.0007207378028820 33.526920541555008 33.526921139615290 1.0007287071481121 
-18.826252817122135 -194.54040514945635 81.350695492829232 -18.826252817122125 -194.54040514945635 81.350695492829303 -17.606435798640003 7.7077979768555848e-08 -1.1332095103499063e-07 -1.7278790673652765e-07 0.0000000000000000 5.6566132854152240e-11 9.5590887635998989e-11 1.6472605918194105e-08 2.2653922490423884e-05 -6.5753074171905875e-15 5.7269648339854978e-14 2.7420679233434935e-14 0.0000000000000000 -18.822600960987238 -194.52970000168264 81.412954998504986 111.95285379220412 0.0000000000000000 0.0000000000000000 0.0000000000000000 0.0000000000000000 3.0014721798400497 3.0029448589394110 1.0014726791479094 1.0007338894948457 33.823591143328606 33.823591116056484 1.0007360688120350 
-22.668112108086817 -103.20998333530501 43.156771054535163 -22.668112108086817 -103.20998333530500 43.156771054535163 -17.881787557078319 -2.7384849095273483e-07 3.1243518476476906e-07 -4.2083963637526816e-07 -17.959578335076433 6.3974588213749906e-11 1.8518214739415839e-11 2.1671869965267376e-08 2.1564733946362780e-05 -4.9068514867997641e-14 -5.5725707430328940e-14 9.1974957659956119e-14 2.1611975968898109e-05 -22.663982073999996 -103.20790935200000 43.238681550399988 69.202643319072678 0.0000000000000000 0.0000000000000000 0.0000000000000000 0.0000000000000000 3.0014666887898334 3.0029338751733552 1.0014671864319267 1.0007338894948465 34.240804278556510 34.120892465175352 1.0007333244454346 
-30.156722792238657 -110.77589594246393 46.908775924666195 -30.156722792238664 -110.77589594246389 46.908775924666195 -17.651430360825220 1.6357996637423910e-08 5.0308050045267991e-07 -5.6526030010262132e-07 -17.558721359677431 7.8411362906122273e-11 2.4900553841078477e-11 2.1161113306078505e-08 2.1546528540409339e-05 8.1407393591628109e-14 -3.1621056061021857e-14 1.0229571978475109e-13 2.1643036773978000e-05 -30.151660686400003 -110.77310694400001 46.988755992800002 74.715282964229786 0.0000000000000000 0.0000000000000000 0.0000000000000000 0.0000000000000000 3.0014746673374133 3.0029498347100554 1.0014751674211819 1.0007338894948465 33.804493191005172 33.980505326355392 1.0007373122307130 
-18.738791284213914 -103.56915624687399 49.929993668686727 -18.738791284213910 -103.56915624687396 49.929993668686727 -17.479811992968486 -3.3293283130173934e-07 2.6388977769691579e-07 -6.0567724896763808e-07 -17.493877599318235 5.6396412713433104e-11 1.8826940006988476e-11 2.0749844467649048e-08 2.1543432042573799e-05 -3.4301475137727903e-14 -7.9966967253895093e-14 5.7484157132228651e-14 2.1553631358651637e-05 -18.735150314000002 -103.56704831999998 50.008419303199993 79.719497061372692 0.0000000000000000 0.0000000000000000 0.0000000000000000 0.0000000000000000 3.0014673418213351 3.0029351811714089 1.0014678393984320 1.0007338894948463 33.524630088577524 33.444681670158182 1.0007336505665572 
-25.496361284961292 -98.489217032546321 50.904313619193573 -25.496361284961282 -98.489217032546378 50.904313619193552 -17.619034157574244 -6.0029984155732090e-09 1.3373715036076869e-07 -9.1749275793315692e-07 0.0000000000000000 6.9426168806951960e-11 1.4533811654171558e-11 2.0617211021756180e-08 2.1528471254822659e-05 -1.1843736972214761e-14 -2.7753431674281376e-14 3.5250157983008073e-14 0.0000000000000000 -25.491879232152165 -98.487589184379729 50.982237960580505 72.292163684038698 0.0000000000000000 0.0000000000000000 0.0000000000000000 0.0000000000000000 3.0014655794231215 3.0029316580030727 1.0014660786287448 1.0007338894948470 33.739839122290270 33.936916875025837 1.0007327706858435 
-25.289546525042457 -104.23358609261305 108.70828677491988 -25.289546525042471 -104.23358609261308 108.70828677491996 -11.005060055229610 3.5525014190244737e-07 1.2149580106302695e-06 -3.6101326548442970e-07 0.0000000000000000 1.9278351157201303e-09 7.3259434890639087e-09 1.3440558026684179e-08 2.0813430758451988e-05 -2.4359258661187437e-12 -1.3271759318922101e-13 7.4332765891279614e-12 0.0000000000000000 -25.283559732051039 -104.23282252886388 108.75695162467670 96.378087069502698 0.0000000000000000 0.0000000000000000 0.0000000000000000 0.0000000000000000 3.0018338401791786 3.0036683166331248 1.0018344763338822 1.0009824627921828 22.857531853391155 22.857882264530225 1.0009167986503937 
-25.920001304029611 -118.01277186657239 110.61659674395889 -25.920001304029601 -118.01277186657248 110.61659674395882 -10.038424379656641 7.0593455650435124e-07 2.6117757326660171e-07 -4.9400089269268915e-07 0.0000000000000000 1.8196001817269469e-09 6.2265090319263583e-09 1.5437026701777315e-08 2.1976836734570832e-05 -1.9634591040837875e-12 3.3941229738913580e-12 5.9443988721856219e-12 0.0000000000000000 -25.913646985361510 -118.01095136745833 110.66456878241424 88.846747377876298 0.0000000000000000 0.0000000000000000 0.0000000000000000 0.0000000000000000 3.0026587911666622 3.0053193617593350 1.0026605708276322 1.0012208213810687 22.791645123345837 22.791818590675614 1.0013294223777185 
-36.246770445734498 -112.72442790288581 111.99107991531848 -36.246770445734484 -112.72442790288586 111.99107991531852 -10.094442114792338 -2.2363354426843527e-07 1.0198841937212328e-06 7.0479238290607412e-07 0.0000000000000000 5.4093974881520524e-10 1.3857549781626871e-08 1.8380951486219082e-08 2.0598741955774527e-05 8.7249510582495858e-13 1.2533217325375347e-13 -9.8307780344049239e-13 0.0000000000000000 -36.236867317722961 -112.72601430119678 112.03758904139967 95.996160021407249 0.0000000000000000 0.0000000000000000 0.0000000000000000 0.0000000000000000 3.0027682641734681 3.0055384717679163 1.0027702079237708 1.0013086375141809 23.097190578504378 23.097239338288126 1.0013841495680713 
-33.389027650872926 -105.09430453030208 105.58148280672977 -33.389027650872912 -105.09430453030203 105.58148280672972 -10.995547546409862 6.6282458670864935e-08 1.4202879380734332e-06 -6.5273889376403512e-07 0.0000000000000000 1.5286777493439222e-09 1.3992185867545549e-08 1.1398048645996332e-08 2.1682669459527226e-05 -2.3505497241663358e-12 -1.3557507285404186e-13 6.1357525611899271e-12 0.0000000000000000 -33.380789828628046 -105.09637623893835 105.63342596379557 85.433794965156210 0.0000000000000000 0.0000000000000000 0.0000000000000000 0.0000000000000000 3.0023009010674722 3.0046029019417091 1.0023020008566588 1.0010984075506582 23.527694816372343 23.527593169631626 1.0011503353534790 
-112.23470028928899 -160.67098392844215 124.62427603151305 -112.23470028928902 -160.67098392844215 124.62427603151308 -14.767589480484167 3.7136838683026919e-08 -1.1859474174819721e-07 -3.3835965466277531e-07 -14.751004532004886 2.3665296848898731e-10 6.7028407130242953e-11 1.0581874848591966e-08 2.0727101340990094e-05 -3.6664693892428301e-14 1.0929298847211509e-13 5.3601204585362786e-13 2.0692127141689634e-05 -112.21942232800005 -160.66347960400000 124.66427103520003 147.55923210393107 0.0000000000000000 0.0000000000000000 0.0000000000000000 0.0000000000000000 3.0016109128317869 3.0032225266029244 1.0016116138559668 1.0007338894948474 29.100957996241068 29.100966530913976 1.0008054968947793 
-99.546316169641869 -158.10195049784738 116.54068711153791 -99.546316169641912 -158.10195049784753 116.54068711153788 -14.896922328145076 -3.4097765107681517e-07 -2.1978618295694908e-07 -6.9413414109025911e-07 0.0000000000000000 2.1219390003782146e-10 6.4836951779723164e-11 1.1682275535829236e-08 2.1134722036327630e-05 1.2435724726147218e-13 4.8472468484305746e-14 3.2581763924921731e-13 0.0000000000000000 -99.532617471171264 -158.09468895943013 116.58484116745363 117.70414803503969 0.0000000000000000 0.0000000000000000 0.0000000000000000 0.0000000000000000 3.0011104539757221 3.0022206430169254 1.0011101889039755 1.0005888425507206 28.255079636991692 28.255122222433869 1.0005549292721312 
-104.35685999670747 -148.86136807149899 120.84982367043521 -104.35685999670748 -148.86136807149890 120.84982367043526 -14.620629426613267 -2.9906195693119142e-07 -2.3082787986594017e-07 -3.2495812238671288e-07 0.0000000000000000 2.2146764673894315e-10 5.7044636375680469e-11 1.1095675350736300e-08 2.0801161329420922e-05 -8.8612106657749749e-14 2.6487250661852153e-13 3.9215963553033292e-13 0.0000000000000000 -104.34256255272837 -148.85497981259945 120.89176065121424 119.29379793442074 0.0000000000000000 0.0000000000000000 0.0000000000000000 0.0000000000000000 3.0011437213164580 3.0022874540999380 1.0011437327583979 1.0005969699371802 27.853075476433364 27.853069818461368 1.0005716884433751 
-100.54423259915323 -162.29071211431523 124.52777077767206 -100.54423259915318 -162.29071211431526 124.52777077767210 -14.679356631958807 -2.0833818745445916e-07 -3.4695521031215495e-07 -2.9615350620340604e-07 0.0000000000000000 2.1411167500443032e-10 6.8385595797249010e-11 1.0595014005021497e-08 2.0767073874919819e-05 -1.1481054073125141e-13 1.5400770880448290e-13 5.6551946687646307e-13 0.0000000000000000 -100.53040969477119 -162.28305471776312 124.56781543385799 141.51484144144280 0.0000000000000000 0.0000000000000000 0.0000000000000000 0.0000000000000000 3.0011784633503855 3.0023571020730819 1.0011786387099486 1.0006084809965505 28.014809852647101 28.014809222681610 1.0005891351408358 
-78.411595733946569 -148.80382080840627 89.390105733172447 -78.411595733946569 -148.80382080840627 89.390105733172476 -14.951463377892193 -8.5155662131460689e-07 -5.6665487802864244e-07 -2.8448808680103913e-07 -14.943730478932194 1.7144162868867885e-10 5.6989763602688370e-11 1.5378219558881412e-08 2.2362158284046603e-05 -1.7324882972723019e-13 2.0026181280444413e-13 4.4100023854308067e-14 2.2557130110347559e-05 -78.400527573600002 -148.79743798799998 89.448228916799977 108.06316173413846 0.0000000000000000 0.0000000000000000 0.0000000000000000 0.0000000000000000 3.0015635459952485 3.0031276733940548 1.0015641274719247 1.0007338894948468 29.327673728100823 29.337047035809636 1.0007817656383156 
-80.160649145505232 -162.54232549122733 87.714024181332334 -80.160649145505218 -162.54232549122736 87.714024181332363 -16.226878034087715 -5.0468666771221212e-07 -8.9633387788660534e-07 -5.1151976888114002e-07 -16.268694956317550 1.7481022922608003e-10 6.8583250190101808e-11 1.5606391762235106e-08 2.2331046831356610e-05 -1.4648478992030696e-13 1.8532583022371102e-13 9.5599394127665260e-14 2.2379431896606326e-05 -80.149363288800018 -162.53464431600008 87.773009718400019 109.57810873427631 0.0000000000000000 0.0000000000000000 0.0000000000000000 0.0000000000000000 3.0015868275071984 3.0031742053071047 1.0015873778552480 1.0007338894948468 31.624025171799374 31.606375858833641 1.0007933863992380 
-84.307280581010289 -160.19189242466643 94.917916130903549 -84.307280581010261 -160.19189242466652 94.917916130903492 -15.657455490629415 -3.9469227788657975e-07 -6.2523730481281882e-07 -9.4552364153850235e-07 0.0000000000000000 1.8281136890743732e-10 6.6614680785392899e-11 1.4625731764583705e-08 2.2306741217108270e-05 -2.1462131940493308e-13 1.6217592998481210e-14 5.6449994077207271e-14 0.0000000000000000 -84.295478612813938 -160.18443337667750 94.973195224810283 106.11323630727971 0.0000000000000000 0.0000000000000000 0.0000000000000000 0.0000000000000000 3.0011833735149067 3.0023670824638535 1.0011837089636275 1.0006198814648319 29.685144525537797 29.674269900912325 1.0005916644787254 
-86.486083836274474 -151.39677698321114 92.578001890377351 -86.486083836274474 -151.39677698321114 92.578001890377379 -15.449511991688858 -4.3464867236971923e-07 -8.1122680620767226e-07 -9.1764212039651202e-07 0.0000000000000000 1.8701148485691929e-10 5.9174932315331219e-11 1.4944269072225680e-08 2.2300811790730276e-05 -1.1386712586922866e-14 -9.7983996445309497e-15 -8.1620622990347288e-14 0.0000000000000000 -86.474010682800568 -151.39014911596544 92.634484883397832 94.367740677547317 0.0000000000000000 0.0000000000000000 0.0000000000000000 0.0000000000000000 3.0013341715089736 3.0026687858649570 1.0013346144050315 1.0006448223430942 29.578024318080484 29.570304552760529 1.0006670843219301 
-26.023204156435384 -132.43573106914022 138.61182622201457 -26.023204156435384 -132.43573106914025 138.61182622201457 -12.195303511551637 3.6794354716190108e-07 -3.2804867196123885e-07 1.5281418944721067e-06 -12.435048909355656 7.0440373586139206e-11 4.3174790131939027e-11 8.6777671576276916e-09 1.9239099460619018e-05 5.8529208087193061e-13 -2.8396297137924223e-13 8.6784732482699642e-13 1.8841514130096824e-05 -26.018656529999991 -132.43089511199997 138.64462455200004 49.421240865332216 0.0000000000000000 0.0000000000000000 0.0000000000000000 0.0000000000000000 3.0014564161338209 3.0029133299543886 1.0014569138838814 1.0008025043652964 24.267215015781410 24.267480887112814 1.0007282023681296 
-32.500800776475607 -133.96179349738520 137.56961560675720 -32.500800776475593 -133.96179349738529 137.56961560675714 -12.027862554356398 -8.0796053857757124e-08 1.6211784832416854e-07 1.0017322941025261e-06 -11.479493582076975 8.2928920241281956e-11 4.4478962180072295e-11 8.8196561026654408e-09 1.9686748522116046e-05 3.7735098666580796e-13 5.3576573628041691e-13 2.7354702928270472e-12 1.7364309288447950e-05 -32.495446914399992 -133.95681332000001 137.60295016000006 48.530522504776933 0.0000000000000000 0.0000000000000000 0.0000000000000000 0.0000000000000000 3.0019342224505658 3.0038693085618302 1.0019350862078331 1.0009748425697400 25.037336558855131 25.037200577078110 1.0009670463729525 
-28.423050180254958 -136.44399186507869 140.27808352082096 -28.423050180254958 -136.44399186507869 140.27808352082096 -12.298387534291795 5.1465285503415480e-07 1.6992221277294629e-07 4.7107926623832833e-07 -12.555187392435103 7.5068497425168079e-11 4.6558505314986398e-11 8.4509468589732961e-09 1.9118121803960173e-05 8.3158468677625065e-13 -3.4253236396640019e-13 7.0118678289092582e-13 1.8715835750954885e-05 -28.418203856399998 -136.43877710800004 140.31002455199999 44.353383947079159 0.0000000000000000 0.0000000000000000 0.0000000000000000 0.0000000000000000 3.0015762934543129 3.0031531128559203 1.0015768194432977 1.0008612582479270 24.772342988058014 24.772244468833303 1.0007880886205593 
-26.773006442075825 -129.50629623607168 143.81821475305131 -26.773006442075825 -129.50629623607168 143.81821475305136 -12.560655263681804 1.2091926695972974e-07 1.4683127487125744e-07 3.4763659768604454e-07 0.0000000000000000 7.1885109410169123e-11 4.0705425141673857e-11 7.9690378740338019e-09 1.8913726885337047e-05 -3.3517903948017585e-14 -1.1777355543799906e-13 5.1763458248686080e-13 0.0000000000000000 -26.768365491316434 -129.50173712462359 143.84833436668455 49.139845408488213 0.0000000000000000 0.0000000000000000 0.0000000000000000 0.0000000000000000 3.0015805344220237 3.0031617239131028 1.0015811895593789 1.0008564494911738 25.310955032912076 25.311167855776265 1.0007902759060510 
-40.075058519109433 -65.474578801942101 153.92846321439444 -40.075058519109447 -65.474578801942116 153.92846321439444 -14.337501269501599 -1.6752846254500741e-07 -3.2112302205597532e-09 2.6207165877541403e-07 -14.384082081375517 9.7529740793883546e-11 -1.3324558470473313e-11 6.5927516779140668e-09 1.9566630805754950e-05 1.1439407010028307e-13 -9.5304091903957980e-14 2.2814574958928994e-14 1.9567218498889437e-05 -40.068761925200000 -65.476070995999990 153.95338104800004 156.95717166164070 0.0000000000000000 0.0000000000000000 0.0000000000000000 0.0000000000000000 3.0014124061768319 3.0028253048434812 1.0014128987252122 1.0007062404593845 27.923434125406178 27.924481559743391 1.0007062009385488 
-52.434592831956500 -59.653733977288304 149.23648261183158 -52.434592831956486 -59.653733977288304 149.23648261183160 -14.425830498750258 -1.5868352400184930e-07 -5.1817892967173698e-08 2.2748858928131735e-07 -14.445036662459595 1.2136043081936720e-10 -1.8237500051809793e-11 7.2314548793528380e-09 1.9682825533797161e-05 9.2857183030710700e-14 -5.8394260753912885e-14 5.8453736523081350e-14 1.9695388763763993e-05 -52.426757905599978 -59.655776269200025 149.26381449600007 118.05125250056595 0.0000000000000000 0.0000000000000000 0.0000000000000000 0.0000000000000000 3.0015064103943212 3.0030133887202530 1.0015069783894719 1.0007119277954748 28.285436706794638 28.285445882506867 1.0007532073387888 
-35.178604417957736 -66.028330305724637 144.97006412338385 -35.178604417957736 -66.028330305724666 144.97006412338391 -14.160838404144640 -5.9564464938558430e-08 3.0521889077011880e-08 4.6383538678578236e-08 -14.158266121086795 8.8090575198901387e-11 -1.2856739110833628e-11 7.8122436436567372e-09 1.9588817377469206e-05 8.2644074526067912e-14 -1.0977528612072649e-13 1.9053514695848649e-13 1.9542805216457442e-05 -35.172917262399999 -66.029770167599992 144.99959110400002 155.12084301790807 0.0000000000000000 0.0000000000000000 0.0000000000000000 0.0000000000000000 3.0014973667172744 3.0029952272647362 1.0014978605965292 1.0007327699269621 27.821339193343345 27.817731276118156 1.0007486505429211 
-50.420412475673416 -66.588741288090660 142.17250425735503 -50.420412475673409 -66.588741288090660 142.17250425735497 -14.276589385092999 -1.6419815283357552e-07 6.3727095584095192e-08 1.5133285718864515e-07 0.0000000000000000 1.1747373863599253e-10 -1.2391461988447983e-11 8.1930762729776063e-09 1.9717926776571899e-05 1.4672623587877805e-13 -2.5018285631763399e-14 1.7730307778683605e-13 0.0000000000000000 -50.412828244765279 -66.590128188430739 142.20347059834828 136.07757377940416 0.0000000000000000 0.0000000000000000 0.0000000000000000 0.0000000000000000 3.0012971966694830 3.0025946292564982 1.0012974325677069 1.0006649419727445 27.577211082297719 27.577550837383498 1.0006485025410787 
-94.572798508384196 -158.72407148384494 77.562658179697522 -94.572798508384196 -158.72407148384494 77.562658179697536 -17.476671091244476 -2.0835571951867396e-07 -2.5245942627595577e-07 -3.8655182177591015e-07 -17.473876798085886 2.0260293312826527e-10 6.5369017490657377e-11 1.6988268181084010e-08 2.2184520606055800e-05 -4.2136016738575934e-14 5.2540725127326055e-14 7.9542935882528775e-14 2.2228465977695474e-05 -94.559718839999974 -158.71675115199997 77.626866652000004 109.98746742214213 0.0000000000000000 0.0000000000000000 0.0000000000000000 0.0000000000000000 3.0014605840368893 3.0029216629135926 1.0014610789252640 1.0007338894948465 33.512984800336532 33.473885937649712 1.0007302723575831 
-89.694611979710359 -158.47370186671100 82.376622146591401 -89.694611979710331 -158.47370186671102 82.376622146591416 -16.911241062734046 -7.3822322296317010e-07 -6.0346901733932063e-07 -8.0627426324109251e-07 -16.713985420815739 1.9319018130029009e-10 6.5152388692424346e-11 1.6332955293796303e-08 2.2194361203180407e-05 -1.1309480231964833e-13 6.1960420819782885e-14 1.3242923771337989e-13 2.2303294235434191e-05 -89.682139475999989 -158.46640519600001 82.438353807199988 112.88451412247700 0.0000000000000000 0.0000000000000000 0.0000000000000000 0.0000000000000000 3.0014761617943866 3.0029527998256715 1.0014766380752909 1.0007338894948463 32.490221777322354 32.677100696800672 1.0007380450135293 
-102.72396080050051 -154.95100240332155 86.549401277699332 -102.72396080050054 -154.95100240332155 86.549401277699374 -16.862388188541729 -1.7368795664184907e-07 -1.2861354429541111e-07 -9.1515757964659404e-07 0.0000000000000000 2.1831079695736053e-10 6.2189382116217828e-11 1.5764921687533295e-08 2.2109803484620547e-05 3.4599495634057241e-14 3.7416170617665923e-14 1.3343466708615288e-14 0.0000000000000000 -102.70986659571734 -154.94403864466588 86.608986019839278 111.02505284862640 0.0000000000000000 0.0000000000000000 0.0000000000000000 0.0000000000000000 3.0014973023702827 3.0029951294715587 1.0014978271512751 1.0007138569723979 32.578013499309002 32.537227219826029 1.0007486368087362 
-100.42087222711825 -167.18203292881452 83.608977540043568 -100.42087222711825 -167.18203292881452 83.608977540043568 -17.262984041986360 -1.1113266149424277e-07 -1.6678806259238764e-07 -8.6927186644376003e-07 0.0000000000000000 2.1387463371505541e-10 7.2522604241398460e-11 1.6165203842177789e-08 2.2169185864905986e-05 -7.0059019125124717e-15 8.6085731594859013e-14 1.5289649541832076e-14 0.0000000000000000 -100.40706467681501 -167.17391327890167 83.670075146830683 105.53983917324770 0.0000000000000000 0.0000000000000000 0.0000000000000000 0.0000000000000000 3.0014664375997162 3.0029333755127015 1.0014669379619290 1.0007179191734605 33.111222358789284 33.212608669800026 1.0007332006851646 
-114.63963953663787 -99.807603870068633 96.517807925072091 -114.63963953663786 -99.807603870068618 96.517807925072091 -15.801523409717152 -1.5151373441163382e-07 -1.9889142641079146e-07 -6.5977990259236324e-07 -15.879167211838306 2.4128385271154324e-10 1.5643404974174935e-11 1.4407942963701181e-08 2.1507380806978428e-05 1.0769396904068994e-13 2.1277993579385413e-13 4.8726567181011674e-13 2.1527570282278129e-05 -114.62406224400000 -99.805851428000011 96.572263865600007 85.211636250682801 0.0000000000000000 0.0000000000000000 0.0000000000000000 0.0000000000000000 3.0014977572906933 3.0029959022750066 1.0014981449557860 1.0006556971788283 30.657656021317091 30.657655962994497 1.0007487875408780 
-111.10269918249566 -91.098571370177595 100.16869097225316 -111.10269918249561 -91.098571370177609 100.16869097225319 -15.464115156912319 -7.1272822565723176e-08 -7.9400726175143503e-09 -7.3184200814057364e-07 -15.414576364960928 2.3446457319067910e-10 8.3004991768831344e-12 1.3910958482354905e-08 2.1270300201010082e-05 2.0159294787577195e-14 -1.5976795060828754e-16 4.2418410312437074e-13 2.1206609312358374e-05 -111.08756211600000 -91.097641973600034 100.22126851279998 99.535403830130534 0.0000000000000000 0.0000000000000000 0.0000000000000000 0.0000000000000000 3.0016388887546990 3.0032784513620689 1.0016395627004473 1.0007063752252436 30.355451462559362 30.355453065019727 1.0008194560631496 
-112.91971127334789 -97.657354121117407 108.33843715368030 -112.91971127334790 -97.657354121117379 108.33843715368033 -15.004951628307222 -6.0105105345536667e-08 -2.7707747973689434e-08 -6.0700047798286189e-07 -14.992776913378096 2.3796970860870398e-10 1.3833335518742549e-11 1.2798836115934797e-08 2.0955044034071554e-05 1.1900344180375690e-13 2.5449219873887891e-13 5.6379214299089386e-13 2.0963907454106377e-05 -112.90434805199999 -97.655804887999992 108.38681131359999 128.09762094244454 0.0000000000000000 0.0000000000000000 0.0000000000000000 0.0000000000000000 3.0015049783932595 3.0030105641318179 1.0015055858041995 1.0007029495312236 29.323378005892092 29.323374471652059 1.0007525108182398 
-107.16931379640896 -103.84333514533367 100.49775677558932 -107.16931379640893 -103.84333514533365 100.49775677558939 -15.375706600036706 -7.0340376930379199e-07 -5.8697706785030823e-08 -7.8150590343096081e-07 0.0000000000000000 2.2688992741895508e-10 1.9048998489701315e-11 1.3866160386566405e-08 2.1411573397779831e-05 2.5592462651843545e-13 2.4295880554675822e-13 2.8058831432275165e-13 0.0000000000000000 -107.15466629968294 -103.84120130723400 100.55016500991876 102.24201981555134 0.0000000000000000 0.0000000000000000 0.0000000000000000 0.0000000000000000 3.0011777272931863 3.0023553663659714 1.0011776389917169 1.0005862920199151 29.184498747749355 29.184499894556748 1.0005886355399491 
-26.895791919804566 -115.37624971790953 103.32221301993734 -26.895791919804548 -115.37624971790954 103.32221301993738 -10.537034641981702 7.3821808493186418e-07 5.6940069359638455e-07 -1.1721892580555355e-06 0.0000000000000000 3.4046810348603955e-09 7.3352239630206321e-09 9.6424995094416298e-09 2.4268757831346964e-05 1.1419558438612559e-12 2.7396660363702659e-12 6.1054250826485927e-12 0.0000000000000000 -26.889884864405381 -115.37486796036181 103.37575244326078 96.382960025775517 0.0000000000000000 0.0000000000000000 0.0000000000000000 0.0000000000000000 3.0022237290096414 3.0044486963210066 1.0022249674125729 1.0011197809437613 22.792616394092182 22.792554444897508 1.0011118625547768 
-109.58328211988108 -103.62388646314287 152.17162816882495 -109.58328211988106 -103.62388646314284 152.17162816882498 -14.615024403718744 2.3434463788832253e-08 6.8244540892033080e-08 2.0857157008883625e-08 -14.642301434950094 2.3153528269995169e-10 1.8872825177651545e-11 6.8319005869232904e-09 1.9599624913064895e-05 8.0458963567502574e-15 -1.3239157702723044e-14 5.0318402732901439e-14 1.9576060205625950e-05 -109.56833416800004 -103.62177336400003 152.19744990400002 70.302883591683823 0.0000000000000000 0.0000000000000000 0.0000000000000000 0.0000000000000000 3.0013970210714902 3.0027944201507690 1.0013973991031335 1.0006976535538776 28.388184576941924 28.389926967542031 1.0006984573311613 