# For a description of the Tecplot format see the Tecplot User's guide.
#
Variables=x,y,z,s_u,s_v,s_w,s_p,mono_f_vel_u,mono_f_vel_v,mono_f_vel_w,const,u_nu,v_nu,w_nu,p_nu,x_nu,y_nu,z_nu,const,u_ref,v_ref,w_ref,vol_ref,x_ref,y_ref,z_ref,const,I1,I2,I3,J,p1,p2,p3
Zone f=fepoint, n=3174, e=16683, et=brick, c=black
-25.0128 -154.331 111.080 -25.012752209439331 -154.33139222754258 111.08047102485465 -114.48205705987532 -6.8001638997613633e-06 -2.8739113955881587e-05 -2.8892396114564097e-05 -112.13985321967010 3.6792388765499723e-07 3.3132659360557426e-07 6.6540096693490356e-05 0.017995132859570970 8.4460704657470912e-10 2.6399301705529696e-09 7.3271277500396336e-11 0.017580996326166436 -24.903554063199991 -154.16086777200002 112.24023381839994 89.724962256112903 0.0000000000000000 0.0000000000000000 0.0000000000000000 0.0000000000000000 3.0379206614250140 3.0760768719111433 1.0381555090039714 1.0196029958280926 275.54842923882705 275.54717561123323 1.0188960992635265 
-37.602511179570108 -155.36484029139410 113.78221514318174 -37.602511179570108 -155.36484029139410 113.78221514318180 -101.29014032383681 2.2864636293057319e-05 -2.5890403492555764e-05 -1.5164351456070034e-05 0.0000000000000000 6.1474760877333296e-07 -2.2075416674428344e-06 7.1068144393164571e-05 0.017628871799444074 -2.9773262382098152e-09 2.4799301198500233e-09 3.5006964046998289e-10 0.0000000000000000 -37.438273663334591 -155.10473791080037 114.93291110338620 89.036758072416930 0.0000000000000000 0.0000000000000000 0.0000000000000000 0.0000000000000000 3.0536709995154454 3.1081409980301378 1.0544728691949883 1.0254299828134716 285.36517454922244 285.36459282723712 1.0268810924324543 
-31.672286984771858 -148.03490282402259 118.79966690471920 -31.672286984771858 -148.03490282402257 118.79966690471926 -92.358430990474744 7.6706623112212893e-06 -1.9001283666695215e-05 -3.4693710739627344e-06 0.0000000000000000 4.3689146401321160e-07 3.0277488111130069e-07 6.0912973690374634e-05 0.017179539372831586 -1.0445879281607026e-09 2.2189021967979195e-09 -1.0526183397320419e-10 0.0000000000000000 -31.542619574254449 -147.87907313389167 119.86135157363466 98.260374494724786 0.0000000000000000 0.0000000000000000 0.0000000000000000 0.0000000000000000 3.0444586852657571 3.0894092550461925 1.0449513995548536 1.0229278195301745 256.23528412474292 256.23581402445166 1.0222214690025095 
-28.768397567732816 -143.11172154089650 110.96326900675662 -28.768397567732798 -143.11172154089658 110.96326900675660 -91.076032794510311 9.5493056264992345e-06 -2.2742247663253692e-05 -1.5980312509262096e-05 0.0000000000000000 4.0681816104032325e-07 2.8045048267033579e-07 6.6625534361985927e-05 0.016947259882965922 -1.0349590170378417e-09 2.1575984429541425e-09 1.1717432962217584e-09 0.0000000000000000 -28.647655777685479 -142.96738158566356 112.12452093910819 112.69127588814607 0.0000000000000000 0.0000000000000000 0.0000000000000000 0.0000000000000000 3.0469412713427615 3.0944874425672810 1.0475482889643997 1.0230485971817396 257.18883926756843 257.19149371255111 1.0234977911607721 
-24.369079901347671 -200.71092483658620 72.071141141180959 -24.369079901347671 -200.71092483658620 72.071141141180973 -246.69394707116732 8.5112892649164079e-07 1.8083355862239397e-08 6.5490042408293493e-07 -247.66182893241026 3.6125788161617262e-07 5.4163670720752677e-07 9.4977035066889925e-05 0.022031819017776681 -1.4829873491341915e-10 -6.5866081226677183e-11 -9.2951890121184407e-11 0.022055148777761355 -24.261860196399997 -200.43215969199997 73.726546483199982 142.71380061529433 0.0000000000000000 0.0000000000000000 0.0000000000000000 0.0000000000000000 3.0368087388724172 3.0739288901126134 1.0371209048217802 1.0183687615527026 507.88362301317568 507.88358272571702 1.0183913535479094 
-24.264295393932169 -187.88791647812204 73.674853245794466 -24.264295393932169 -187.88791647812201 73.674853245794466 -243.44794986668276 3.9899693828783757e-06 -5.6949678078435537e-06 -1.7528475876476174e-06 -244.49091415931963 3.6017271063532030e-07 4.8349020520532804e-07 9.3807964428815880e-05 0.021934805481414753 -3.7844685650460299e-10 3.4317381859366141e-10 2.1102337467033518e-10 0.022061073239272391 -24.157397762799999 -187.63907770800003 75.309882232799993 165.73632395326644 0.0000000000000000 0.0000000000000000 0.0000000000000000 0.0000000000000000 3.0368099999951341 3.0739293629963536 1.0371201021487459 1.0183687615527028 502.46270366815071 502.46244096462135 1.0183908573454503 
-35.025516430645894 -195.67834904021538 80.042556539957147 -35.025516430645894 -195.67834904021558 80.042556539957175 -241.86808819398200 1.4889385858207357e-06 -4.4601928084494004e-06 -9.0707134643947359e-06 0.0000000000000000 4.7161823173852424e-07 5.1881626261796033e-07 8.9166049625166721e-05 0.021806726743504128 -2.5288622287256320e-10 3.7215719839483645e-10 7.4579120768164247e-11 0.0000000000000000 -34.885542273181727 -195.41132893576267 81.596679120775832 139.46796289390394 0.0000000000000000 0.0000000000000000 0.0000000000000000 0.0000000000000000 3.0364938337762637 3.0732960055365757 1.0368029267656169 1.0180387010880529 499.08445677815456 499.08449886154307 1.0182351149217681 
-18.913050589697342 -194.79465774480204 79.856468024700746 -18.913050589697335 -194.79465774480198 79.856468024700732 -245.00245652069918 1.9934600084790291e-06 -2.7751036420049617e-06 -4.2211108011008882e-06 0.0000000000000000 3.0475406698898810e-07 5.1480912965917724e-07 8.9301704033317719e-05 0.022017110819266810 -2.3774136386497588e-10 3.1868619067828133e-10 3.4826011030723681e-11 0.0000000000000000 -18.822600960987238 -194.52970000168264 81.412954998504986 111.95285379220412 0.0000000000000000 0.0000000000000000 0.0000000000000000 0.0000000000000000 3.0368740730983794 3.0740591074476904 1.0371857850112958 1.0183687615527024 506.85913888319544 506.85950846173961 1.0184232665363391 
-22.766275273927185 -103.25924147252586 41.190920032736280 -22.766275273927189 -103.25924147252587 41.190920032736280 -244.93589362169757 -6.3331205555037878e-06 7.1905170049873705e-06 -9.7482896896345315e-06 -246.82587519093775 3.4465888918561177e-07 9.9737585385062375e-08 0.00011748803302058516 0.022260958934525971 -1.9568125625039020e-10 -3.9236656107277290e-10 5.9138797386825401e-10 0.022507132017727374 -22.663982073999996 -103.20790935200000 43.238681550399988 69.202643319072678 0.0000000000000000 0.0000000000000000 0.0000000000000000 0.0000000000000000 3.0367367237454070 3.0737833658075910 1.0370473904213435 1.0183687615527015 505.23789672905565 505.23789672819487 1.0183553016399360 
-30.277039555852696 -110.84213604609111 44.989255147697179 -30.277039555852696 -110.84213604609111 44.989255147697179 -239.61365471725671 5.4456416522696943e-07 1.1481965431107338e-05 -1.3204422821585461e-05 -237.63190444722025 4.2244198034807612e-07 1.3412255722711208e-07 0.00011471913076199768 0.022117737092312129 5.3853036474660177e-10 -3.5767192849764948e-10 5.2505671145354501e-10 0.022453830659215274 -30.151660686400003 -110.77310694400001 46.988755992800002 74.715282964229786 0.0000000000000000 0.0000000000000000 0.0000000000000000 0.0000000000000000 3.0369232375323620 3.0741577407443930 1.0372352530404563 1.0183687615527024 495.13001091590371 495.13001091308041 1.0184476594103116 
-18.825330318859958 -103.61922056077634 48.047779281930353 -18.825330318859958 -103.61922056077630 48.047779281930353 -235.66666261326654 -7.6821278314148602e-06 5.9164048104252005e-06 -1.4112844124436320e-05 -235.99699803794422 3.0384561752749834e-07 1.0136992650844336e-07 0.00011248953433984353 0.022009067199279208 -1.0066953927220372e-10 -5.4637351444840401e-10 4.5265438562623148e-10 0.022120683157307839 -18.735150314000002 -103.56704831999998 50.008419303199993 79.719497061372692 0.0000000000000000 0.0000000000000000 0.0000000000000000 0.0000000000000000 3.0367514802205302 3.0738128238416640 1.0370620912564015 1.0183687615527028 488.68872842848390 488.68872843303114 1.0183624527552693 
-25.602891275745677 -98.527879237864667 49.034130262089889 -25.602891275745680 -98.527879237864624 49.034130262089917 -238.64352452071469 9.9378870012397251e-08 2.8454649261568003e-06 -2.1703947374053171e-05 0.0000000000000000 3.7403549606879194e-07 7.8282998583478758e-08 0.00011177050629829212 0.022064892557053531 4.0450376143735812e-11 -2.1919214189962957e-10 2.6051058707752055e-10 0.0000000000000000 -25.491879232152165 -98.487589184379729 50.982237960580505 72.292163684038698 0.0000000000000000 0.0000000000000000 0.0000000000000000 0.0000000000000000 3.0367166339103067 3.0737442761132190 1.0370283972607834 1.0183687615527026 493.29849279353596 493.29849279573904 1.0183458251663280 
-25.425489813183116 -104.25893544090368 107.54194049940453 -25.425489813183123 -104.25893544090374 107.54194049940453 -91.042526283049057 7.2483363620120635e-06 2.4594052627782959e-05 -5.3311388846717044e-06 0.0000000000000000 -9.2990079030229250e-07 2.8968366085106831e-06 6.8523995198256304e-05 0.016772110743099714 -2.0253642763176076e-09 -3.2223065402846201e-09 1.4561829399395971e-09 0.0000000000000000 -25.283559732051039 -104.23282252886388 108.75695162467670 96.378087069502698 0.0000000000000000 0.0000000000000000 0.0000000000000000 0.0000000000000000 3.0445896325465029 3.0895903678550192 1.0450000021920260 1.0235912196030428 249.28942392719091 249.26752789565310 1.0222443160563950 
-26.063127800217284 -118.06646167668210 109.46606726758864 -26.063127800217298 -118.06646167668212 109.46606726758864 -73.135560279517662 1.2531025147119829e-05 3.2779822751544577e-06 -9.7305204196949921e-06 0.0000000000000000 -1.1124898036026423e-08 2.9459850177557046e-06 6.7810367955491586e-05 0.015997882011865798 -1.7319921925088330e-09 -3.6834047103614982e-10 1.1227631325327665e-09 0.0000000000000000 -25.913646985361510 -118.01095136745833 110.66456878241424 88.846747377876298 0.0000000000000000 0.0000000000000000 0.0000000000000000 0.0000000000000000 3.0611712738846966 3.1232844190154765 1.0621162740093772 1.0283596578101992 250.76332075595587 250.78819457205896 1.0305987960136571 
-36.464740075719284 -112.70981419197052 110.87020609960267 -36.464740075719284 -112.70981419197052 110.87020609960258 -74.330915497440941 -6.3877852567236304e-06 1.6982098649638704e-05 1.1161579612681293e-05 0.0000000000000000 -1.8049460119537459e-07 4.2812159776554566e-06 6.6955308086003092e-05 0.015873447516929387 2.8365323498339682e-10 -2.4890925058050544e-09 -6.9284391193223798e-10 0.0000000000000000 -36.236867317722961 -112.72601430119678 112.03758904139967 95.996160021407249 0.0000000000000000 0.0000000000000000 0.0000000000000000 0.0000000000000000 3.0631031847530075 3.1272213402357059 1.0641222573208426 1.0301168788720514 256.83723994392841 256.82184581235583 1.0315643413907047 
-33.572251720326271 -105.06514321431139 104.34240755453878 -33.572251720326250 -105.06514321431135 104.34240755453871 -90.386310060827640 7.4804269429964092e-07 2.8355571959892756e-05 -8.7783568369562250e-06 0.0000000000000000 -2.8819282290974703e-06 3.8066739220254177e-06 6.8355974039857809e-05 0.016948157525495087 -2.3785336291046162e-09 -3.6794628690668491e-09 1.9293752221112040e-09 0.0000000000000000 -33.380789828628046 -105.09637623893835 105.63342596379557 85.433794965156210 0.0000000000000000 0.0000000000000000 0.0000000000000000 0.0000000000000000 3.0548729698710511 3.1104003914820644 1.0555280498840309 1.0261847021193804 262.64831701611075 262.65109070184377 1.0273875267967005 
-112.59782878077054 -160.84921537429253 123.66439637220081 -112.59782878077051 -160.84921537429253 123.66439637220081 -170.99312761523717 9.9483240646002255e-07 -3.1518810913070486e-06 -8.4737617344932412e-06 -170.56489441025275 1.2749737890657700e-06 3.6088195898287262e-07 5.7366693533733581e-05 0.019320808945802032 -7.2979695231496267e-11 2.4938572935039021e-10 2.6742161426619241e-10 0.019323251142548518 -112.21942232800005 -160.66347960400000 124.66427103520003 147.55923210393107 0.0000000000000000 0.0000000000000000 0.0000000000000000 0.0000000000000000 3.0399429230490518 3.0803112757218938 1.0403696271747120 1.0183687615527048 382.57733447942070 383.03519438052086 1.0199923988283106 
-99.871908545274934 -158.27441565459551 115.48099024336544 -99.871908545274906 -158.27441565459554 115.48099024336537 -174.61401577368534 -7.7935449850797626e-06 -5.5431018242734817e-06 -1.6607489339055454e-05 0.0000000000000000 1.1431814124426840e-06 3.4920640928914892e-07 6.3332215545219839e-05 0.019483816964458316 1.0403894481445876e-09 6.6690672630707494e-10 3.7094678480582829e-10 0.0000000000000000 -99.532617471171264 -158.09468895943013 116.58484116745363 117.70414803503969 0.0000000000000000 0.0000000000000000 0.0000000000000000 0.0000000000000000 3.0289095435209670 3.0576998093917305 1.0287884040612345 1.0150574756549293 365.80308439208727 364.08829988499218 1.0142861142740782 
-104.69668343034481 -149.01309240443814 119.84333658175115 -104.69668343034481 -149.01309240443823 119.84333658175109 -167.39074869409430 -6.7921766847859539e-06 -6.0807857793353950e-06 -7.7713492096561978e-06 0.0000000000000000 1.1931478190660427e-06 3.0721051252902148e-07 6.0152161589055453e-05 0.019191657213549516 6.6665965918660641e-10 5.7964409708214390e-10 2.0722846754741393e-10 0.0000000000000000 -104.34256255272837 -148.85497981259945 120.89176065121424 119.29379793442074 0.0000000000000000 0.0000000000000000 0.0000000000000000 0.0000000000000000 3.0295309409157487 3.0590972550782096 1.0295660014105499 1.0152918737859531 354.67172265616199 354.90182823826939 1.0146677224647069 
-100.87277711639489 -162.47257909907123 123.56669945891574 -100.87277711639489 -162.47257909907117 123.56669945891566 -169.20343727076479 -4.5266716220020464e-06 -8.6791689307600151e-06 -7.6226159873961702e-06 0.0000000000000000 1.1535466289055996e-06 3.6824317384276384e-07 5.7437912422297899e-05 0.019250300136325730 4.9468517368243434e-10 7.1148955086301837e-10 2.4260171370719974e-10 0.0000000000000000 -100.53040969477119 -162.28305471776312 124.56781543385799 141.51484144144280 0.0000000000000000 0.0000000000000000 0.0000000000000000 0.0000000000000000 3.0304033307403424 3.0609335280447563 1.0305300609667538 1.0155390769923376 359.35565095815639 359.64674386668042 1.0151449393114982 
-78.674665151004390 -148.95541597441746 87.995149949813893 -78.674665151004405 -148.95541597441749 87.995149949813907 -177.60060592491624 -1.9602370919416465e-05 -1.3552431198286821e-05 -6.5995877925882788e-06 -177.58243981374611 9.2365819880785294e-07 3.0694898867089648e-07 8.3368784973725241e-05 0.019869997936152493 1.2689225902683839e-09 1.0717092690453379e-09 8.0125489123949031e-10 0.019888180667849732 -78.400527573600002 -148.79743798799998 89.448228916799977 108.06316173413846 0.0000000000000000 0.0000000000000000 0.0000000000000000 0.0000000000000000 3.0392629022782960 3.0788861018937648 1.0396243010081432 1.0183687615527022 393.15772170153008 394.97643712226630 1.0196245670229656 
-80.428892796796703 -162.72475723137185 86.298371924664323 -80.428892796796703 -162.72475723137183 86.298371924664323 -207.98613105325094 -1.1549829799901346e-05 -2.1879062343346999e-05 -1.2101918695918388e-05 -208.96634704708606 9.4182536022197071e-07 3.6938667796748703e-07 8.4605698615458622e-05 0.020734112595475418 5.5778675643578238e-10 1.3550129641561640e-09 1.3459787759195512e-09 0.020977204667015411 -80.149363288800018 -162.53464431600008 87.773009718400019 109.57810873427631 0.0000000000000000 0.0000000000000000 0.0000000000000000 0.0000000000000000 3.0396819183444421 3.0797043855572430 1.0400233124317866 1.0183687615527044 447.25518794110030 442.84477539450404 1.0198225084188921 
-84.587791234662049 -160.36904853218749 93.591218470325899 -84.587791234662021 -160.36904853218758 93.591218470325956 -194.25824985730981 -8.6336310272505267e-06 -1.5182480648942984e-05 -2.2601766162517235e-05 0.0000000000000000 9.8489581170507767e-07 3.5870461873033216e-07 7.9289374848467973e-05 0.020277885936197015 7.0583010140127054e-11 9.1786524073339937e-10 8.0145523391597899e-10 0.0000000000000000 -84.295478612813938 -160.18443337667750 94.973195224810283 106.11323630727971 0.0000000000000000 0.0000000000000000 0.0000000000000000 0.0000000000000000 3.0297401210783002 3.0596983721411468 1.0299585501083728 1.0155431090759419 400.38051790413505 398.16976282305035 1.0148595306572827 
-86.773040055463142 -151.55419213379525 91.222410663987063 -86.773040055463127 -151.55419213379534 91.222410663987091 -188.90872349307267 -9.6359478411520066e-06 -1.9681495238061311e-05 -2.1906755132950832e-05 0.0000000000000000 1.0075267196860138e-06 3.1873326483689018e-07 8.1016183317572654e-05 0.020194971721268013 5.6352505762380027e-10 1.3479533764517453e-09 5.5769181627610061e-10 0.0000000000000000 -86.474010682800568 -151.39014911596544 92.634484883397832 94.367740677547317 0.0000000000000000 0.0000000000000000 0.0000000000000000 0.0000000000000000 3.0334343543995259 3.0671485302349435 1.0337149309573246 1.0161829835803553 397.39245941240114 394.47446755118904 1.0167175173397498 
-26.131292709355900 -132.55058746158628 137.82466665431392 -26.131292709355893 -132.55058746158628 137.82466665431392 -114.72711624752910 7.5547536042995150e-06 -6.5703650820178944e-06 2.9997614775105858e-05 -119.59434248641379 3.7950773639633395e-07 2.3256054715314889e-07 4.7044169802834539e-05 0.018057370083588396 -2.5677684387403640e-10 -3.8481926830348662e-11 -1.4806692959452671e-09 0.018121904141370413 -26.018656529999991 -132.43089511199997 138.64462455200004 49.421240865332216 0.0000000000000000 0.0000000000000000 0.0000000000000000 0.0000000000000000 3.0363891273062071 3.0730753060079934 1.0366870292977561 1.0197581102976261 276.99022214712204 277.43013487485996 1.0181827269251829 
-32.628052038757446 -134.08007519253246 136.76958668663283 -32.628052038757453 -134.08007519253249 136.76958668663289 -110.92510677102783 -1.1051982827564078e-06 4.3010108777832018e-06 1.8169173456340889e-05 -98.384342255664976 4.4678957571847583e-07 2.3949607458328975e-07 4.7813299747456739e-05 0.018036477522654755 -4.8767462641524466e-11 -4.1253350938360568e-10 -7.5794681407306071e-10 0.016080299612303454 -32.495446914399992 -133.95681332000001 137.60295016000006 48.530522504776933 0.0000000000000000 0.0000000000000000 0.0000000000000000 0.0000000000000000 3.0467552285103698 3.0940501375938116 1.0472964850697968 1.0234097337207708 292.62439587010454 292.59716625158586 1.0233654837563224 
-28.538238210738509 -136.56784494486686 139.51149911527369 -28.538238210738498 -136.56784494486689 139.51149911527366 -115.86673287992571 9.5493308176188750e-06 4.9277215581460309e-06 9.3793275845902399e-06 -120.61661450773087 4.0443458048516900e-07 2.5077696769182367e-07 4.5814506262953358e-05 0.018195242820709077 -2.7767375759580500e-11 -4.8763501418748603e-10 -6.5818361101291404e-10 0.018130314004324681 -28.418203856399998 -136.43877710800004 140.31002455199999 44.353383947079159 0.0000000000000000 0.0000000000000000 0.0000000000000000 0.0000000000000000 3.0386845334416459 3.0776841640581618 1.0390002461617061 1.0208899657111132 284.81515452368279 284.77858987624677 1.0193104593229199 
-26.883313139181752 -129.61457740534141 143.09534434905689 -26.883313139181737 -129.61457740534146 143.09534434905694 -121.69699373994473 3.1991353013933829e-06 3.9822680167367552e-06 6.2289184036058155e-06 0.0000000000000000 3.8729582146207480e-07 2.1924707410692079e-07 4.3201962381278491e-05 0.018425390489417128 -4.1316891840093149e-10 -2.1207392056221743e-10 -2.4535042051232935e-10 0.0000000000000000 -26.768365491316434 -129.50173712462359 143.84833436668455 49.139845408488213 0.0000000000000000 0.0000000000000000 0.0000000000000000 0.0000000000000000 3.0394399876105491 3.0792887039434187 1.0398498157167462 1.0209167225797715 298.26532152348443 298.33092469311191 1.0197278165622745 
-40.224716749324521 -65.439138449319344 153.33043547524667 -40.224716749324521 -65.439138449319344 153.33043547524670 -159.80847954974186 -3.5231902341584222e-06 -1.0339983704534350e-07 5.7279701979505660e-06 -160.81777516153142 5.2546226401301022e-07 -7.1759408859506366e-08 3.5740807411421827e-05 0.019383179485198011 5.4285055165321470e-11 -6.4954486201398069e-11 -2.2593544360265129e-10 0.019456170068135822 -40.068761925200000 -65.476070995999990 153.95338104800004 156.95717166164070 0.0000000000000000 0.0000000000000000 0.0000000000000000 0.0000000000000000 3.0357145930493132 3.0717379307731623 1.0360242172971115 1.0177814591732510 354.28555915454916 354.28437568113350 1.0178531468260239 
-52.620814339845531 -59.605228526454482 148.58051768507931 -52.620814339845531 -59.605228526454503 148.58051768507929 -161.77935056673010 -3.5354403226001783e-06 -9.6451417776901116e-07 4.6194204862088429e-06 -162.23709944723439 6.5383891872244904e-07 -9.8213544297287569e-08 3.9203392391495839e-05 0.019320786550256180 2.0015701416892985e-10 -6.9908012132591207e-11 -1.4244049451841895e-10 0.019408647942624500 -52.426757905599978 -59.655776269200025 149.26381449600007 118.05125250056595 0.0000000000000000 0.0000000000000000 0.0000000000000000 0.0000000000000000 3.0376560225756117 3.0756612136808523 1.0380061457174732 1.0178853603901830 361.89080095880320 361.88899409145358 1.0188268306530919 
-35.313777441336832 -65.994132868520396 144.26141690544108 -35.313777441336825 -65.994132868520396 144.26141690544111 -156.15152458052717 -1.1418046305580368e-06 6.4720294022991841e-07 5.1726043844215603e-07 -156.07446133024501 4.7460352415457091e-07 -6.9242766270738430e-08 4.2351921282435263e-05 0.019256764294219606 -7.1274683302265710e-12 4.3873548736043422e-11 -9.8215507720449352e-11 0.019319492417203845 -35.172917262399999 -66.029770167599992 144.99959110400002 155.12084301790807 0.0000000000000000 0.0000000000000000 0.0000000000000000 0.0000000000000000 3.0372739315710198 3.0748541641461311 1.0375809817217472 1.0183059459629806 351.64483517216593 351.64572936761544 1.0186173720396872 
-50.600675422844212 -66.555801713747172 141.42931240580819 -50.600675422844226 -66.555801713747158 141.42931240580813 -158.62806022180658 -3.6151525643367053e-06 1.7809088955052833e-06 2.9150495978590450e-06 0.0000000000000000 6.3291792736647190e-07 -6.6695854755716155e-08 4.4416462805507713e-05 0.019221819878436113 1.6675428497150777e-10 -8.1933796943614041e-11 -8.1193426518966518e-11 0.0000000000000000 -50.412828244765279 -66.590128188430739 142.20347059834828 136.07757377940416 0.0000000000000000 0.0000000000000000 0.0000000000000000 0.0000000000000000 3.0328768529632431 3.0659184540932354 1.0330414422044294 1.0168122628033256 346.34950639679641 346.34789100874855 1.0163848956934050 
-94.883677699631690 -158.89793301380453 76.021655533439812 -94.883677699631704 -158.89793301380453 76.021655533439812 -237.01505045766913 -4.8208083516867734e-06 -6.3791282551717217e-06 -9.3378039924630702e-06 -236.98461266864840 1.0915222188531692e-06 3.5203379011861102e-07 9.2097197482932116e-05 0.021853755521838162 -4.4709352841221513e-11 2.8342922566268229e-10 6.3338436929157540e-10 0.022136665655333180 -94.559718839999974 -158.71675115199997 77.626866652000004 109.98746742214213 0.0000000000000000 0.0000000000000000 0.0000000000000000 0.0000000000000000 3.0365945958427711 3.0734976179152147 1.0369037732327209 1.0183687615527024 490.91974129575402 491.55659814835627 1.0182844639791198 
-89.991060005181012 -158.64700143294618 80.895062954409113 -89.991060005181012 -158.64700143294615 80.895062954409099 -223.63467282575564 -1.7196989795555304e-05 -1.4890738824510861e-05 -1.9236392183700375e-05 -219.02610537607055 1.0408532176917060e-06 3.5089592842485473e-07 8.8544591303030273e-05 0.021348894096642292 3.7227178687484367e-10 7.3612960865505462e-10 1.6391715129184881e-09 0.021756203118925562 -89.682139475999989 -158.46640519600001 82.438353807199988 112.88451412247700 0.0000000000000000 0.0000000000000000 0.0000000000000000 0.0000000000000000 3.0369844771607211 3.0742663134183275 1.0372825187021850 1.0183687615527033 466.71223026856563 467.73311378268977 1.0184697232002589 
-103.05895361955210 -155.11639514231024 85.119368105726736 -103.05895361955210 -155.11639514231035 85.119368105726750 -221.94626045983944 -3.9277127283234261e-06 -3.3865583887830711e-06 -2.2068063933053018e-05 0.0000000000000000 1.1761871456447692e-06 3.3488623202293505e-07 8.5465166312026497e-05 0.021320798979606127 5.4090378884712466e-10 3.1324168693608251e-10 2.9597457793856132e-10 0.0000000000000000 -102.70986659571734 -154.94403864466588 86.608986019839278 111.02505284862640 0.0000000000000000 0.0000000000000000 0.0000000000000000 0.0000000000000000 3.0374516251702337 3.0752288771181502 1.0377780247445119 1.0178853416297386 467.83572036834272 468.76418297757311 1.0187158730304413 
-100.74905180669943 -167.37487866128640 82.142635632772226 -100.74905180669943 -167.37487866128649 82.142635632772183 -231.96458610874419 -2.3685859519148342e-06 -4.3002829712687012e-06 -2.1026258230806724e-05 0.0000000000000000 1.1522653021941998e-06 3.9047289301930022e-07 8.7635138428687753e-05 0.021640123435817948 3.1925241826028861e-10 4.0583808772450600e-10 4.7807166515830309e-10 0.0000000000000000 -100.40706467681501 -167.17391327890167 83.670075146830683 105.53983917324770 0.0000000000000000 0.0000000000000000 0.0000000000000000 0.0000000000000000 3.0367165026023692 3.0737441784943385 1.0370284304151227 1.0179805473454715 481.33393630463809 475.97547846627691 1.0183461986791615 
-115.00988257299336 -99.849225242661021 95.210865936752555 -115.00988257299333 -99.849225242661049 95.210865936752526 -194.61035363670905 -3.6553536138906132e-06 -4.9391046455361673e-06 -1.5760723294848702e-05 -196.46926971630731 1.2999535415745990e-06 8.4274706990683512e-08 7.8108687682654234e-05 0.020234660482321240 1.0313690106071020e-10 4.1161315604329316e-10 6.7987169374289532e-10 0.020296601881210526 -114.62406224400000 -99.805851428000011 96.572263865600007 85.211636250682801 0.0000000000000000 0.0000000000000000 0.0000000000000000 0.0000000000000000 3.0375291948910501 3.0753157648371561 1.0377863137876773 1.0165243625558837 418.64598005316560 418.64587305970844 1.0187154825776852 
-111.46247886893754 -91.120645002130630 98.906830563322742 -111.46247886893754 -91.120645002130658 98.906830563322742 -186.49409272654347 -1.6798463246852980e-06 -2.2644695561542096e-07 -1.7354773853302582e-05 -185.34996108011566 1.2632158595468623e-06 4.4694556528002138e-08 7.5414411245144932e-05 0.019920723160400583 -1.4902479503528783e-11 8.4414946977867841e-11 3.9288524433973227e-10 0.019910005505942747 -111.08756211600000 -91.097641973600034 100.22126851279998 99.535403830130534 0.0000000000000000 0.0000000000000000 0.0000000000000000 0.0000000000000000 3.0406190806444569 3.0816418151450411 1.0410240708888028 1.0177170334178041 410.62983845529772 410.63028779754126 1.0203110575333112 
-113.28486623655449 -97.694149179833630 107.17745783469638 -113.28486623655452 -97.694149179833630 107.17745783469636 -175.45973297632639 -1.5354728512015335e-06 -8.9518308295111314e-07 -1.4891704411811187e-05 -175.23193711450679 1.2820888855222257e-06 7.4502418928590344e-08 6.9385306951108561e-05 0.019454642019669052 1.5428909438036635e-13 1.3315708460816506e-10 3.9073508155829210e-10 0.019414201972395385 -112.90434805199999 -97.655804887999992 108.38681131359999 128.09762094244454 0.0000000000000000 0.0000000000000000 0.0000000000000000 0.0000000000000000 3.0375618671192224 3.0754952255692265 1.0379343580902167 1.0176718105090417 386.30248416130786 386.30266147246010 1.0187909336865260 
-107.51745732743997 -103.89401486375955 99.239959714058855 -107.51745732743997 -103.89401486375951 99.239959714058855 -184.53043396185058 -1.6881577239778119e-05 -1.5677636013267417e-06 -1.8539688168257290e-05 0.0000000000000000 1.2223603600633459e-06 1.0261598640259884e-07 7.5171567455623048e-05 0.019833278730761787 1.5724450163366353e-09 2.0671858697929326e-11 4.1056649911241719e-10 0.0000000000000000 -107.15466629968294 -103.84120130723400 100.55016500991876 102.24201981555134 0.0000000000000000 0.0000000000000000 0.0000000000000000 0.0000000000000000 3.0303065333587269 3.0605972760054674 1.0302897200437713 1.0149618429884895 384.88014161131451 384.87919491971849 1.0150264141853933 
-27.028443365979463 -115.42090380158918 102.04631367709162 -27.028443365979459 -115.42090380158922 102.04631367709165 -82.754306035529751 1.5264217439482942e-05 9.0389451917671672e-06 -2.3140528570179100e-05 0.0000000000000000 -3.1708394532490791e-07 3.9333393015930902e-06 7.1975986827323621e-05 0.016734996872485877 -2.4714456372035151e-09 -1.5988977219635486e-09 1.2987656159117804e-09 0.0000000000000000 -26.889884864405381 -115.37486796036181 103.37575244326078 96.382960025775517 0.0000000000000000 0.0000000000000000 0.0000000000000000 0.0000000000000000 3.0527640973991241 3.1062280652578624 1.0534656868585197 1.0264331889966247 250.33357622738461 250.32381256461935 1.0263832672456843 
-109.93856690655110 -103.67407362100899 151.55190680170912 -109.93856690655115 -103.67407362100901 151.55190680170912 -164.82821382551552 4.4602038209154671e-07 1.4412655572539025e-06 2.0902809603639212e-07 -165.40686854401596 1.2474338925913540e-06 1.0161865196534059e-07 3.7037315468335663e-05 0.018960328070513694 -2.3324610963007843e-11 -5.3507007418893305e-11 -4.2078701782085063e-11 0.018971036625904748 -109.56833416800004 -103.62177336400003 152.19744990400002 70.302883591683823 0.0000000000000000 0.0000000000000000 0.0000000000000000 0.0000000000000000 3.0351731965400290 3.0705910420930489 1.0354182650792489 1.0175686556998922 362.11170401552744 362.11353486809367 1.0175558539629646 