# For a description of the Tecplot format see the Tecplot User's guide.
#
Variables=x,y,z,s_u,s_v,s_w,s_p,mono_f_vel_u,mono_f_vel_v,mono_f_vel_w,const,u_nu,v_nu,w_nu,p_nu,x_nu,y_nu,z_nu,const,u_ref,v_ref,w_ref,vol_ref,x_ref,y_ref,z_ref,const,I1,I2,I3,J,p1,p2,p3
Zone f=fepoint, n=3174, e=16683, et=brick, c=black
-25.6036 -155.250 104.391 -25.603558923044247 -155.24963085310841 104.39137893599967 -90.525367213398383 -2.4165530720613330e-05 -6.4125578199385316e-05 -8.5295652378070987e-05 -62.491531333949084 2.2262422461061254e-10 8.7446716534600455e-11 2.9894996877999347e-06 0.00054631618385181553 1.1211131445917782e-10 7.9858241256580645e-10 -8.6184987043332096e-10 0.00064625508389405651 -24.903554063199991 -154.16086777200002 112.24023381839994 89.724962256112903 0.0000000000000000 0.0000000000000000 0.0000000000000000 0.0000000000000000 3.2555634871569050 3.5245752044345271 1.2691671114516550 1.1272925746952747 1051.8406740093344 1051.7002437857104 1.1265249112391491 
-38.397097378013946 -156.41165281277009 107.24210367005658 -38.397097378013974 -156.41165281277011 107.24210367005661 -59.298577181844607 4.4104244425957749e-05 -1.0881701772950242e-05 -3.3019542390688776e-05 0.0000000000000000 -2.8897342947787748e-07 -1.0335893581542707e-08 2.8411212902155734e-06 0.00046048430311348629 -3.0307706893189464e-10 1.5917090720194957e-10 -1.1500287026274621e-09 0.0000000000000000 -37.438273663334591 -155.10473791080037 114.93291110338620 89.036758072416930 0.0000000000000000 0.0000000000000000 0.0000000000000000 0.0000000000000000 3.2855608457813572 3.5920391964615743 1.3068998094027759 1.1389921157662832 1109.1845627278951 1109.7155675091055 1.1432285910203461 
-32.373840805122754 -148.87401320284110 112.67625394542718 -32.373840805122761 -148.87401320284113 112.67625394542713 -42.086393166642665 6.7631214414499217e-06 -1.9714165939609176e-06 -3.5999016970528680e-05 0.0000000000000000 2.6435534317137410e-10 7.9894091342680440e-11 2.7366854631338811e-06 0.00035415517571515238 1.0156579739570458e-10 4.0953369068758145e-10 3.9707672982630143e-10 0.0000000000000000 -31.542619574254449 -147.87907313389167 119.86135157363466 98.260374494724786 0.0000000000000000 0.0000000000000000 0.0000000000000000 0.0000000000000000 3.2641322805423001 3.5443214379840908 1.2804410266496686 1.1322964624711755 1024.4493232410421 1024.0860925552554 1.1315373896542877 
-29.421660124189632 -143.88896209378711 104.26558810416866 -29.421660124189650 -143.88896209378711 104.26558810416870 -44.945845270334971 -4.8208573378480558e-06 -3.4806037879493425e-05 4.5492083176345818e-06 0.0000000000000000 2.4615623428481115e-10 7.4009909312167110e-11 2.9933382172941947e-06 0.00031890450148871970 -9.9872931897914603e-11 6.3023772480394588e-11 2.2382067399418352e-10 0.0000000000000000 -28.647655777685479 -142.96738158566356 112.12452093910819 112.69127588814607 0.0000000000000000 0.0000000000000000 0.0000000000000000 0.0000000000000000 3.2695060567202314 3.5561262929826363 1.2869263062496892 1.1329421021777777 1039.6115678796966 1039.7866024334155 1.1344295844186556 
-24.949182436925344 -202.21201699610029 62.523362199853374 -24.949182436925348 -202.21201699610032 62.523362199853374 -737.96528383059774 1.2865204303665422e-05 1.7542175901827481e-06 6.2082237495765023e-06 -744.49117007217967 2.1859072885099806e-10 1.4292900196721803e-10 4.2671085651591056e-06 0.00015225173580925175 -2.1667245111570005e-11 -7.7982156735114996e-12 -7.2432752237447569e-12 0.00015363840591087652 -24.261860196399997 -200.43215969199997 73.726546483199982 142.71380061529433 0.0000000000000000 0.0000000000000000 0.0000000000000000 0.0000000000000000 3.2520751813886832 3.5181248533504506 1.2662690624380739 1.1251375408623057 2194.5810118098766 2185.3367373079504 1.1252867225701040 
-24.842655378202647 -189.22786135310909 64.244597746225082 -24.842655378202643 -189.22786135310909 64.244597746225068 -720.21832656826120 2.9862922106989272e-05 -3.4667740323321274e-05 -1.0505557303709427e-05 -728.53069721018448 2.1793175597473180e-10 1.2758705203452791e-10 4.2145847949370810e-06 0.00015753373119687213 -1.7673012918123627e-11 -1.0654638387643758e-12 1.0336395274907995e-12 0.00016694269962362032 -24.157397762799999 -187.63907770800003 75.309882232799993 165.73632395326644 0.0000000000000000 0.0000000000000000 0.0000000000000000 0.0000000000000000 3.2519969714919030 3.5178972628586278 1.2661170518033824 1.1251375408623043 2164.5913819186089 2160.0500215520160 1.1252170555053740 
-35.782833975027721 -197.11619660835973 71.078939912210245 -35.782833975027714 -197.11619660835984 71.078939912210274 -704.86730272445789 1.8825806520673909e-05 -2.5268762298565148e-05 -5.1538668738493672e-05 0.0000000000000000 2.8536820129154705e-10 1.3692047495794668e-10 4.0060338122316352e-06 0.00013615229278763835 -3.8935836200008999e-11 -3.6494787117730787e-12 -3.6791195566937017e-12 0.0000000000000000 -34.885542273181727 -195.41132893576267 81.596679120775832 139.46796289390394 0.0000000000000000 0.0000000000000000 0.0000000000000000 0.0000000000000000 3.2502262587762525 3.5142762882324101 1.2642683339771714 1.1235972909584391 2131.8674907176514 2141.9370660889931 1.1243955961812657 
-19.402420141519936 -196.22139992732741 70.879214433859488 -19.402420141519933 -196.22139992732727 70.879214433859488 -732.03130575931277 1.5621120677607286e-05 -1.5938287321539657e-05 -2.4906802312841840e-05 0.0000000000000000 1.8440146631881760e-10 1.3586087810324446e-10 4.0121284641259081e-06 0.00016086184884392483 -1.3047283550575471e-11 4.9068250118133112e-12 -1.3028634223340536e-12 0.0000000000000000 -18.822600960987238 -194.52970000168264 81.412954998504986 111.95285379220412 0.0000000000000000 0.0000000000000000 0.0000000000000000 0.0000000000000000 3.2522986186632332 3.5185465219423788 1.2664664992936141 1.1251375408623059 2194.0019868260574 2194.2869839154514 1.1253751661582074 
-23.319723398775835 -103.53565423484218 29.380172659307945 -23.319723398775835 -103.53565423484221 29.380172659307952 -591.02974847085306 -2.6370340852560098e-05 3.0069746339659728e-05 -4.1539697535332341e-05 -601.42195536084000 2.0854581950224821e-10 2.6315394308085160e-11 5.2784780173453774e-06 -0.00084456018612104930 -4.0331260087452198e-11 6.0795981950503121e-11 -6.8095629987997803e-11 -0.00084602872680572517 -22.663982073999996 -103.20790935200000 43.238681550399988 69.202643319072678 0.0000000000000000 0.0000000000000000 0.0000000000000000 0.0000000000000000 3.2516836559256044 3.5172885797277975 1.2658231707462557 1.1251375408623063 1940.1149200533878 1940.1867702605018 1.1250887632420901 
-30.955390611872371 -111.21384336294761 33.456857868638664 -30.955390611872364 -111.21384336294761 33.456857868638672 -568.48334015730177 5.0864805739379434e-06 4.5866856459696855e-05 -5.9368432436695568e-05 -563.85705188061104 2.5561122662942637e-10 3.5396574560309091e-11 5.1540773462477318e-06 -0.00081116703772548041 -3.1224569869199653e-11 1.0792305339558086e-10 -7.0533829194931000e-11 -0.00077676893223448129 -30.151660686400003 -110.77310694400001 46.988755992800002 74.715282964229786 0.0000000000000000 0.0000000000000000 0.0000000000000000 0.0000000000000000 3.2522128438560221 3.5183559155220556 1.2663608804305417 1.1251375408623050 1896.2610893469475 1896.1715041868545 1.1253286451840518 
-19.313241095178565 -103.90015719541159 36.739517171473167 -19.313241095178565 -103.90015719541158 36.739517171473160 -551.81014875497362 -3.2778506072792366e-05 2.2834894448846161e-05 -6.3454668372178112e-05 -554.24471246627218 1.8385062916514985e-10 2.6755708759651498e-11 5.0539065021837359e-06 -0.00077534049062447877 -6.4154233113784484e-11 6.8439502956918484e-11 -9.8090792555184239e-11 -0.00077736553569349154 -18.735150314000002 -103.56704831999998 50.008419303199993 79.719497061372692 0.0000000000000000 0.0000000000000000 0.0000000000000000 0.0000000000000000 3.2517097285941783 3.5173334146391038 1.2658416295828556 1.1251375408623057 1869.4873547023201 1869.5485527909016 1.1250963144429778 
-26.203511917256364 -98.744832772290366 37.798150054124086 -26.203511917256375 -98.744832772290408 37.798150054124100 -560.31408857399424 5.1418880390854734e-06 7.8300076591572537e-06 -0.00010070661575871850 0.0000000000000000 2.2632232199448765e-10 2.0654145060916562e-11 5.0216021634241761e-06 -0.00083184051619994252 -6.3803972855284973e-11 5.4318392038646591e-11 -9.9375381947356281e-11 0.0000000000000000 -25.491879232152165 -98.487589184379729 50.982237960580505 72.292163684038698 0.0000000000000000 0.0000000000000000 0.0000000000000000 0.0000000000000000 3.2517921764185429 3.5175529617496770 1.2659806970753851 1.1251375408623063 1883.0072063977766 1882.9984829526779 1.1251572214140522 
-26.042618230148832 -104.55332838111906 100.58580218818351 -26.042618230148832 -104.55332838111913 100.58580218818356 -35.397811544453354 9.5927250035707086e-06 4.5052337935153217e-05 1.3742605012295764e-05 0.0000000000000000 -5.8009813508236687e-08 2.0878583197944582e-07 2.8196019669484264e-06 2.9548871735159985e-05 3.6340724996405744e-10 2.2199920835480707e-10 -9.1536169387679764e-10 0.0000000000000000 -25.283559732051039 -104.23282252886388 108.75695162467670 96.378087069502698 0.0000000000000000 0.0000000000000000 0.0000000000000000 0.0000000000000000 3.2659516726140660 3.5479882492993609 1.2822880371035081 1.1340603672033418 1003.7033397968228 1003.7033815920292 1.1323653970189911 
-26.688919241058347 -118.54186930021292 102.63123587882930 -26.688919241058336 -118.54186930021295 102.63123587882923 -16.484978371067605 3.3439317306797121e-07 -6.5800571835221663e-06 -1.8945587195107059e-06 0.0000000000000000 -4.9880813017083277e-08 2.8023921680290644e-07 2.7039599763944064e-06 2.2952468517637677e-05 -1.3156002287470602e-10 -2.4514615718420185e-10 -4.0110210248063162e-10 0.0000000000000000 -25.913646985361510 -118.01095136745833 110.66456878241424 88.846747377876298 0.0000000000000000 0.0000000000000000 0.0000000000000000 0.0000000000000000 3.2868981379495774 3.5926311202192376 1.3060704407865626 1.1394347776903819 1049.4672076492027 1049.4662634574843 1.1428513740334703 
-37.277739784324154 -113.10323841922451 104.12475572034468 -37.277739784324147 -113.10323841922447 104.12475572034465 -19.799204641664215 -2.1785290458199927e-05 -8.4563810519332457e-06 -3.7400207483241621e-06 0.0000000000000000 -2.2800168250160478e-07 7.7873714831318908e-07 2.3659488672144645e-06 0.00011840902215891908 -2.0034066484750630e-10 -4.1281462051384170e-10 -2.4840207667035831e-10 0.0000000000000000 -36.236867317722961 -112.72601430119678 112.03758904139967 95.996160021407249 0.0000000000000000 0.0000000000000000 0.0000000000000000 0.0000000000000000 3.2847966889447986 3.5884198519260906 1.3039748566683758 1.1409662935535694 1054.3752320840756 1054.3748615468064 1.1419161945355467 
-34.323954802226517 -105.34990892090353 97.115001037647204 -34.323954802226496 -105.34990892090353 97.115001037647247 -29.796466743146336 -9.8370048068892167e-06 4.2502302097555116e-05 1.6514586621844283e-05 0.0000000000000000 -2.2342480714624867e-07 7.8391240013813467e-07 2.4674935176832246e-06 4.3674639744580094e-05 2.0945421565267773e-10 4.7183323116503256e-11 -8.0785439554803178e-11 0.0000000000000000 -33.380789828628046 -105.09637623893835 105.63342596379557 85.433794965156210 0.0000000000000000 0.0000000000000000 0.0000000000000000 0.0000000000000000 3.2853287507152276 3.5888415003938401 1.3038248695915520 1.1390975378919912 1039.8679291801384 1039.8680442640662 1.1418507696061289 
-114.64516273713873 -161.84936375705132 117.89748115873000 -114.64516273713872 -161.84936375705135 117.89748115873000 -226.90585225213133 6.4526536701550264e-06 -1.9010619273702697e-05 -3.3580799667095562e-05 -225.09134844840625 7.7145270727108074e-10 9.5227603580383402e-11 2.5773589307220846e-06 -0.00011239622422615681 -9.3378952502708323e-12 2.7714669831979583e-11 -7.7897468556826668e-11 -9.9507171634763037e-05 -112.21942232800005 -160.66347960400000 124.66427103520003 147.55923210393107 0.0000000000000000 0.0000000000000000 0.0000000000000000 0.0000000000000000 3.2574873791818892 3.5304323932879762 1.2732138282860910 1.1251375408623059 1323.6701428721915 1323.6693056774272 1.1283939953341915 
-101.70761227606313 -159.24220642115137 109.11437758370147 -101.70761227606316 -159.24220642115139 109.11437758370144 -246.00798271267669 -2.8468037336043649e-05 -2.9018455232355320e-05 -6.6683811701230629e-05 0.0000000000000000 6.9171515737487255e-10 9.2149621266912618e-11 2.8453766631741924e-06 -0.00014520313367862142 -3.8399986422432773e-11 1.2751137125698049e-10 -1.4113042821271445e-10 0.0000000000000000 -99.532617471171264 -158.09468895943013 116.58484116745363 117.70414803503969 0.0000000000000000 0.0000000000000000 0.0000000000000000 0.0000000000000000 3.2390717994524478 3.4867594542506448 1.2476974158754170 1.1186827542471467 1290.1443298319725 1290.1432534757591 1.1169794216794748 
-106.61262247444668 -149.86449573279157 113.79640596124710 -106.61262247444667 -149.86449573279154 113.79640596124713 -206.30527782703254 -2.2034171810081552e-05 -3.9951899123115239e-05 -1.9853192125186472e-05 0.0000000000000000 7.2194342171094671e-10 8.1062934143005818e-11 2.7025038598083029e-06 -0.00016388236063596121 4.0337186875910104e-11 4.2688909799987806e-11 -1.3328818979617490e-10 0.0000000000000000 -104.34256255272837 -148.85497981259945 120.89176065121424 119.29379793442074 0.0000000000000000 0.0000000000000000 0.0000000000000000 0.0000000000000000 3.2391368950214039 3.4885765518524186 1.2495454589003392 1.1198729496397299 1223.8493604574278 1223.8504867943477 1.1178025319321210 
-102.72512514775721 -163.49312836193042 117.79262480737283 -102.72512514775723 -163.49312836193039 117.79262480737280 -225.49073676050071 -1.2071232089189388e-05 -4.5085269897717795e-05 -3.4320371435333971e-05 0.0000000000000000 6.9799102608847353e-10 9.7179375657674427e-11 2.5805586396643317e-06 -8.3888778876289698e-05 -1.2245273102946716e-11 3.4274344023237993e-11 -5.3319251429696182e-11 0.0000000000000000 -100.53040969477119 -162.28305471776312 124.56781543385799 141.51484144144280 0.0000000000000000 0.0000000000000000 0.0000000000000000 0.0000000000000000 3.2407084623566935 3.4931086199393109 1.2525465637935798 1.1198197823245797 1263.4361629673979 1263.4365671699677 1.1191555129175734 
-80.157861768893113 -149.80609448065277 79.614316320175675 -80.157861768893113 -149.80609448065277 79.614316320175689 -290.00734853136242 -7.9617342632096015e-05 -5.7560938380778901e-05 -2.8333363193211845e-05 -293.44040138493028 5.5888962902095329e-10 8.0986994888121431e-11 3.7455755048654282e-06 -0.00016926695539616119 -1.7262306687397245e-11 6.7759676820224141e-11 -1.2131140694279786e-11 -0.00014382911978467807 -78.400527573600002 -148.79743798799998 89.448228916799977 108.06316173413846 0.0000000000000000 0.0000000000000000 0.0000000000000000 0.0000000000000000 3.2610508721732780 3.5366468548024863 1.2758344369720562 1.1251375408623083 1451.5916214270060 1451.6044514807995 1.1295807208753066 
-81.941261968459742 -163.74847562740959 77.793194784216681 -81.941261968459713 -163.74847562740962 77.793194784216681 -425.10906493176611 -4.1959961612068411e-05 -0.00010996499912017543 -5.3659377489747308e-05 -428.74084084200325 5.6988194718776707e-10 9.7487573569310358e-11 3.8011473151300375e-06 -0.00013863551111158328 8.5983567436185592e-11 5.5925152702729687e-11 6.0669852861229448e-11 -0.00017108296639790994 -80.149363288800018 -162.53464431600008 87.773009718400019 109.57810873427631 0.0000000000000000 0.0000000000000000 0.0000000000000000 0.0000000000000000 3.2620921285988107 3.5385746216454548 1.2767060675253246 1.1251375408623052 1684.6609188500743 1684.6505294222579 1.1299832369622960 
-86.169322289967482 -161.36316263807751 85.620476671355590 -86.169322289967525 -161.36316263807751 85.620476671355561 -357.39284291312254 -2.4312867716798415e-05 -7.0435890998941768e-05 -0.00010689004460165725 0.0000000000000000 5.9593865953111447e-10 9.4655172588886671e-11 3.5622966123582951e-06 -0.00015852955104035394 -7.5349906486859536e-11 -4.4075859532068205e-11 -4.8517696658974390e-11 0.0000000000000000 -84.295478612813938 -160.18443337667750 94.973195224810283 106.11323630727971 0.0000000000000000 0.0000000000000000 0.0000000000000000 0.0000000000000000 3.2277926968622377 3.4688065541135975 1.2412307558748903 1.1161210549477802 1445.0571094661668 1445.0501789167904 1.1140089035662013 
-88.390911484771920 -152.43752956915782 83.078077579234389 -88.390911484771948 -152.43752956915787 83.078077579234346 -330.70943364761791 -3.1856570320514049e-05 -9.2768811828899953e-05 -9.9693325056125607e-05 0.0000000000000000 6.0963881165498890e-10 8.4100060249170383e-11 3.6398783045399345e-06 -0.00023654032501976751 -1.7240524147198340e-10 1.2496917929607760e-10 -3.3759444407479937e-13 0.0000000000000000 -86.474010682800568 -151.39014911596544 92.634484883397832 94.367740677547317 0.0000000000000000 0.0000000000000000 0.0000000000000000 0.0000000000000000 3.2395744003521068 3.4929286083468920 1.2535823994676427 1.1183979269801398 1435.1186688768730 1435.1369511932278 1.1196324686086070 
-26.740700590808565 -133.19510579900057 133.09544623343879 -26.740700590808562 -133.19510579900060 133.09544623343885 -91.019391271039382 1.7516162631444464e-05 -1.8242742466649538e-05 8.3970112627539061e-05 -103.17826789758963 2.2963289603161741e-10 6.1361804526427477e-11 2.1135907211089489e-06 4.8109727485153955e-05 4.4375933853296143e-11 -8.0981329879135677e-12 1.1800019349203025e-10 1.8576364836339460e-05 -26.018656529999991 -132.43089511199997 138.64462455200004 49.421240865332216 0.0000000000000000 0.0000000000000000 0.0000000000000000 0.0000000000000000 3.2508189664262495 3.5151979298892448 1.2645898347152635 1.1267476779218764 1065.4351587693525 1065.4336814057920 1.1245464576999853 
-33.345500094671145 -134.74381466649049 131.96304775654693 -33.345500094671145 -134.74381466649041 131.96304775654696 -79.536296835546068 -1.7517018209304027e-06 1.4537346692270824e-05 2.6632616958701434e-05 -15.734814169401583 2.7034599558994893e-10 6.3205440881120025e-11 2.1481460343864001e-06 7.4897196479006809e-05 4.4111017665366518e-12 8.4497174181655331e-12 2.2940302380663817e-10 -1.0905186550867847e-05 -32.495446914399992 -133.95681332000001 137.60295016000006 48.530522504776933 0.0000000000000000 0.0000000000000000 0.0000000000000000 0.0000000000000000 3.2666388374992721 3.5500114371356939 1.2836637991717952 1.1324021190750480 1099.5419287744016 1099.5303074979224 1.1329830132702174 
-29.187673250148329 -137.26284832577326 134.90589337306258 -29.187673250148336 -137.26284832577329 134.90589337306258 -88.643484836755789 1.8527970512433667e-05 2.6992019181808921e-05 2.4230723782825117e-05 -98.063612627617673 2.4471494275424277e-10 6.6164185241746054e-11 2.0583446485034074e-06 1.5948797496424452e-05 7.1623825354366150e-11 -8.3079875352107275e-11 3.1511283379784753e-11 -1.9849172039647460e-05 -28.418203856399998 -136.43877710800004 140.31002455199999 44.353383947079159 0.0000000000000000 0.0000000000000000 0.0000000000000000 0.0000000000000000 3.2525116497785338 3.5187117860792956 1.2664076377837072 1.1279650028389170 1066.9173632230340 1066.9104827694848 1.1253513092445695 
-27.505227012363086 -130.22219878108478 138.75237042548156 -27.505227012363090 -130.22219878108487 138.75237042548162 -107.22814464941834 1.5231977461771058e-05 1.8687909996505171e-05 9.1946960181183762e-06 0.0000000000000000 2.3434323925819461e-10 5.7851057277957807e-11 1.9409688079008447e-06 1.3133374267831585e-05 -5.7002023834551672e-12 -1.7438116839956577e-11 4.9924813871929371e-11 0.0000000000000000 -26.768365491316434 -129.50173712462359 143.84833436668455 49.139845408488213 0.0000000000000000 0.0000000000000000 0.0000000000000000 0.0000000000000000 3.2546964509217080 3.5243326201220184 1.2698846906932362 1.1280077313125207 1118.2350179502316 1118.2356697130779 1.1268888374928754 
-41.068496248198919 -65.240264388735085 149.73751084817425 -41.068496248198919 -65.240264388735099 149.73751084817425 -187.13244831058302 -3.0816264702780313e-06 -6.8792919383052873e-06 2.8216656238480947e-05 -190.46844649707785 3.1794869514989438e-10 -1.8937074131031298e-11 1.6057555960458103e-06 -9.8253310118290256e-05 -1.9038473271603026e-11 3.7635498736334944e-12 7.3765830613513299e-12 -9.8921618438346131e-05 -40.068761925200000 -65.476070995999990 153.95338104800004 156.95717166164070 0.0000000000000000 0.0000000000000000 0.0000000000000000 0.0000000000000000 3.2505778565557928 3.5151442690497277 1.2647915832679559 1.1240724383340668 1231.8757894521730 1231.8812064603540 1.1246315080844995 
-53.670739161089337 -59.333039474881843 144.63950895665039 -53.670739161089351 -59.333039474881843 144.63950895665039 -188.71960993310179 -1.6032462943153642e-05 -9.6814444700277856e-07 1.3605988877867363e-05 -191.07734407444835 3.9562245146562697e-10 -2.5913715617775779e-11 1.7613218936674002e-06 -0.00011032204218410783 -1.2488038427859813e-12 1.1873496325653504e-12 -6.8479539655096607e-12 -0.00010391772067036585 -52.426757905599978 -59.655776269200025 149.26381449600007 118.05125250056595 0.0000000000000000 0.0000000000000000 0.0000000000000000 0.0000000000000000 3.2530050043523695 3.5203521434132630 1.2675797361426839 1.1241065995186053 1242.8452451600385 1242.8472186409965 1.1258713754887655 
-36.075888724920972 -65.802233446108559 140.00389526458648 -36.075888724920965 -65.802233446108545 140.00389526458645 -174.30118477171865 3.0900065768450676e-06 -2.9476868449066534e-06 -1.8579987812497622e-06 -173.60850204684857 2.8717275779577273e-10 -1.8267831691787251e-11 1.9027783473291040e-06 -9.3063374572232606e-05 -1.5715822827649088e-11 1.5363150761643004e-11 -1.3671210556507553e-11 -8.8768258820982063e-05 -35.172917262399999 -66.029770167599992 144.99959110400002 155.12084301790807 0.0000000000000000 0.0000000000000000 0.0000000000000000 0.0000000000000000 3.2520703231361288 3.5179631898620012 1.2661081459755545 1.1248202867501542 1214.6029877538351 1214.6007200021809 1.1252148629501781 
-51.617005624068675 -66.370960807299880 136.96424810984846 -51.617005624068703 -66.370960807299909 136.96424810984851 -178.48690387859997 -1.2499808309560742e-05 1.1435050846206389e-05 6.5411927585985452e-06 0.0000000000000000 3.8296457671727064e-10 -1.7599033341753060e-11 1.9955336405530488e-06 -0.00011087184320698758 -9.1632850480258723e-12 -3.7296535993481946e-12 -7.6049617100841666e-12 0.0000000000000000 -50.412828244765279 -66.590128188430739 142.20347059834828 136.07757377940416 0.0000000000000000 0.0000000000000000 0.0000000000000000 0.0000000000000000 3.2443046585368491 3.5007405078282030 1.2565903684854005 1.1221500316478104 1193.6109325979085 1193.6128315083179 1.1209733094803271 
-96.636427867960478 -159.87355954919738 66.763378708332397 -96.636427867960478 -159.87355954919738 66.763378708332411 -546.32544222945535 -2.6877787322525606e-05 -2.9014115579942976e-05 -5.0961311207691177e-05 -546.31914156067808 6.6046237923167449e-10 9.2891694336572073e-11 4.1377238169104658e-06 -0.00023674343120300807 -1.1080467293955151e-10 1.2402227376346097e-10 -4.0775060334196159e-11 -0.00020249404462007421 -94.559718839999974 -158.71675115199997 77.626866652000004 109.98746742214213 0.0000000000000000 0.0000000000000000 0.0000000000000000 0.0000000000000000 3.2513212696117724 3.5165511136870262 1.2654488051546193 1.1251375408623059 1859.3612880865851 1858.8322002954703 1.1249195768346996 
-91.662446644020960 -159.61947450062485 71.993919814053825 -91.662446644020960 -159.61947450062490 71.993919814053825 -484.31643956106223 -7.4598891406284961e-05 -6.9848850305848816e-05 -8.9483813757273409e-05 -465.02204602382602 6.2980357040665069e-10 9.2588825495454330e-11 3.9781130674043652e-06 -0.00019626009277721678 -1.0000507106996629e-10 1.5868967971900064e-10 4.8564171929670621e-12 -0.00016899574347346367 -89.682139475999989 -158.46640519600001 82.438353807199988 112.88451412247700 0.0000000000000000 0.0000000000000000 0.0000000000000000 0.0000000000000000 3.2532189574513470 3.5201140875178201 1.2671035688644436 1.1251375408623059 1749.1987948353164 1749.3053579782825 1.1256513676583706 
-104.94765745214210 -156.04449893247107 76.527791052072104 -104.94765745214212 -156.04449893247107 76.527791052072146 -471.83048781675183 -1.5750249301488761e-05 -9.9928710992585491e-06 -0.00011090379358641176 0.0000000000000000 7.1168451687420031e-10 8.8362872574521134e-11 3.8397612911467149e-06 -0.00031712370610406340 -8.1850573171123114e-11 1.2913375914801767e-10 -6.1318785130187919e-11 0.0000000000000000 -102.70986659571734 -154.94403864466588 86.608986019839278 111.02505284862640 0.0000000000000000 0.0000000000000000 0.0000000000000000 0.0000000000000000 3.2532303160488700 3.5206170534361263 1.2676084361593396 1.1234548732028735 1742.3269261650710 1742.3061907828235 1.1258951433048177 
-102.59934230393328 -168.45703532860989 73.332917277815085 -102.59934230393324 -168.45703532860989 73.332917277815085 -517.09030232730902 -6.8321731705490437e-06 -1.8298561465675243e-05 -0.00010709015252632685 0.0000000000000000 6.9721053930216215e-10 1.0302758646218991e-10 3.9372533464643311e-06 -0.00018840502910136359 -7.4190629168805991e-11 6.9140564008934051e-11 -1.0923940928077904e-11 0.0000000000000000 -100.40706467681501 -167.17391327890167 83.670075146830683 105.53983917324770 0.0000000000000000 0.0000000000000000 0.0000000000000000 0.0000000000000000 3.2513746778883497 3.5166555427783228 1.2654982275333821 1.1237845676002804 1801.7159660166215 1801.5051107635377 1.1249452689570310 
-117.09732863746163 -100.08278418781727 87.358815356824493 -117.09732863746164 -100.08278418781727 87.358815356824479 -332.29741756903252 -1.6550701513605444e-05 -2.3438609311619194e-05 -7.2731624065336671e-05 -340.93174949046630 7.8657527739210751e-10 2.2232216068118760e-11 3.5092509413914286e-06 -0.00077537253337609826 -2.2884060061947004e-11 -1.3505074713015970e-11 -1.1421866593728089e-10 -0.00077243467239384623 -114.62406224400000 -99.805851428000011 96.572263865600007 85.211636250682801 0.0000000000000000 0.0000000000000000 0.0000000000000000 0.0000000000000000 3.2536858834134867 3.5215103204923035 1.2680072543598906 1.1198308656627560 1492.1970929004567 1490.1770636859860 1.1260359953926220 
-113.49093211935227 -91.244511512858324 91.325628150145732 -113.49093211935225 -91.244511512858338 91.325628150145718 -295.43613103480413 -6.0103611059151191e-06 1.1177260719389844e-06 -7.8691659483135211e-05 -291.86561474795911 7.6435083262715853e-10 1.1788126030864987e-11 3.3882030443521671e-06 -0.00074614596676253410 1.1408108164715675e-11 6.8156580306290276e-11 -1.6468684774053285e-10 -0.00070410434224464126 -111.08756211600000 -91.097641973600034 100.22126851279998 99.535403830130534 0.0000000000000000 0.0000000000000000 0.0000000000000000 0.0000000000000000 3.2613494646666843 3.5374375879434017 1.2763319944356282 1.1231070419283848 1454.3208020338111 1454.5958023910280 1.1297644684344466 
-115.34362552712710 -97.900625193608604 100.20234461897243 -115.34362552712713 -97.900625193608619 100.20234461897242 -237.77035649397303 -9.3639455790841880e-06 -7.8603387835489414e-06 -8.4515112726528483e-05 -238.39992523233238 7.7576259305267559e-10 1.9660939543086897e-11 3.1173286991759142e-06 -0.00064209366099559208 -2.8415030888499864e-11 -3.4095350383789821e-11 -1.6955351834350102e-10 -0.00063442138204783903 -112.90434805199999 -97.655804887999992 108.38681131359999 128.09762094244454 0.0000000000000000 0.0000000000000000 0.0000000000000000 0.0000000000000000 3.2530747743401509 3.5209514128892625 1.2681218214101135 1.1237152696037380 1334.6637654317242 1334.8190124854150 1.1260982789272354 
-109.48030543627789 -104.17840484994002 91.683169715199767 -109.48030543627785 -104.17840484993999 91.683169715199725 -286.79752844775413 -7.6553033796792185e-05 -9.9034310546227362e-06 -8.4213826376289516e-05 0.0000000000000000 7.3962128088744805e-10 2.7078561615212493e-11 3.3772926109065793e-06 -0.00076499031475001534 7.5663495100624384e-11 -6.0242883111959135e-11 -1.0638263617596728e-10 0.0000000000000000 -107.15466629968294 -103.84120130723400 100.55016500991876 102.24201981555134 0.0000000000000000 0.0000000000000000 0.0000000000000000 0.0000000000000000 3.2380543214094319 3.4855541391520970 1.2475767252415679 1.1166058634906018 1354.3119127318278 1353.9643850619402 1.1169234464471105 
-27.640259305600186 -115.86714750932001 94.646733273049364 -27.640259305600203 -115.86714750932005 94.646733273049406 -29.282273760369815 3.0444075039105455e-05 2.9591453967486887e-06 -3.6787272669576973e-05 0.0000000000000000 -5.3448984902037380e-08 3.8619787787236429e-07 2.9239643539923538e-06 -8.7452862845276567e-05 1.0981972587250094e-10 -3.1492816295496459e-10 -9.7903275000172095e-11 0.0000000000000000 -26.889884864405381 -115.37486796036181 103.37575244326078 96.382960025775517 0.0000000000000000 0.0000000000000000 0.0000000000000000 0.0000000000000000 3.2798293285178497 3.5776209490767306 1.2981058371293388 1.1382749344360081 1033.8517346072340 1033.8518291278479 1.1393411432012355 
-111.94167771992430 -103.95569959635566 147.82864780204048 -111.94167771992426 -103.95569959635569 147.82864780204048 -179.68559514302288 -5.1479369444316226e-07 -1.5467231649434898e-06 1.9168364072006327e-07 -180.42601460271484 7.5478870376066709e-10 2.6816993070610809e-11 1.6640048521310291e-06 -7.8914212571204234e-05 1.4927695432552497e-12 2.5483168772554251e-12 7.2656524109588906e-12 -7.3339990142298484e-05 -109.56833416800004 -103.62177336400003 152.19744990400002 70.302883591683823 0.0000000000000000 0.0000000000000000 0.0000000000000000 0.0000000000000000 3.2490352940187246 3.5112120374978626 1.2623712462784518 1.1237413511553944 1212.7571311678632 1212.7613680762556 1.1235546537208738 