# For a description of the Tecplot format see the Tecplot User's guide.
#
Variables=x,y,z,s_u,s_v,s_w,s_p,mono_f_vel_u,mono_f_vel_v,mono_f_vel_w,const,u_nu,v_nu,w_nu,p_nu,x_nu,y_nu,z_nu,const,u_ref,v_ref,w_ref,vol_ref,x_ref,y_ref,z_ref,const,I1,I2,I3,J,p1,p2,p3
Zone f=fepoint, n=3174, e=16683, et=brick, c=black
-25.3274 -154.821 107.608 -25.327448502883826 -154.82141204322053 107.60792615400800 -267.27456721469372 -2.4868655827237775e-05 -9.9190852016469385e-05 -0.00010408411286902001 -256.32238959275031 1.0699774399824946e-13 4.4075854077618715e-14 5.8494915577966822e-09 -0.0058666859835340346 3.6321359193189402e-11 1.4202490356909805e-10 2.7645246121247667e-11 -0.0058239761962187737 -24.903554063199991 -154.16086777200002 112.24023381839994 89.724962256112903 0.0000000000000000 0.0000000000000000 0.0000000000000000 0.0000000000000000 3.1534559000376348 3.3108181003594108 1.1573293829809250 1.0777322267848579 764.56554774224196 764.56554845462779 1.0757323749763139 
-38.057500287907231 -156.09252664449585 110.32957759967451 -38.057500287907253 -156.09252664449590 110.32957759967444 -222.43174162253629 8.0530518578124727e-05 -8.1678637319286022e-05 -5.2655931256777465e-05 0.0000000000000000 1.3832313967421934e-07 3.1176163210972123e-07 -4.0475780861677649e-07 -0.0060780289010615779 -5.6186811094487167e-10 4.7299223455195914e-10 -2.3304074629132821e-10 0.0000000000000000 -37.438273663334591 -155.10473791080037 114.93291110338620 89.036758072416930 0.0000000000000000 0.0000000000000000 0.0000000000000000 0.0000000000000000 3.2078799446037509 3.4275644060392385 1.2198463072889254 1.0988342078954971 794.38490633365666 794.38490568469581 1.1045431740637310 
-32.045973305242292 -148.48269569802497 115.62078612666949 -32.045973305242313 -148.48269569802503 115.62078612666940 -191.76970531667658 2.5155270493483642e-05 -5.8179082792115401e-05 -1.9164623996456846e-05 0.0000000000000000 1.2814749261735867e-13 2.0317081350640368e-14 5.3548188105878580e-09 -0.0059401502327986189 -1.3071247773305533e-10 6.0962732005232152e-11 -8.2082380135438585e-12 0.0000000000000000 -31.542619574254449 -147.87907313389167 119.86135157363466 98.260374494724786 0.0000000000000000 0.0000000000000000 0.0000000000000000 0.0000000000000000 3.1745441866201429 3.3565172635876630 1.1820247515571194 1.0894157150126131 695.16738100170562 695.16738084430949 1.0871202659235069 
-29.116361293311787 -143.52649746282006 107.48626537817736 -29.116361293311794 -143.52649746281998 107.48626537817742 -190.45144926412897 2.8298572772152897e-05 -7.5548919087279931e-05 -4.8005907320394874e-05 0.0000000000000000 1.1771139618588222e-13 3.1197266991966899e-14 5.8569966654431482e-09 -0.0060307301212828733 -6.4526156419419420e-10 9.2991615513683221e-11 -1.5767932955473845e-10 0.0000000000000000 -28.647655777685479 -142.96738158566356 112.12452093910819 112.69127588814607 0.0000000000000000 0.0000000000000000 0.0000000000000000 0.0000000000000000 3.1830751323190145 3.3750444756526763 1.1920854247746042 1.0898461685001297 703.11805035785551 703.11804470221250 1.0918283484223545 
-24.678074558246788 -201.51198556616231 67.114550568010912 -24.678074558246784 -201.51198556616234 67.114550568010927 -759.97212234144945 4.4156406419807117e-06 3.6973356588876560e-07 2.9079759764992239e-06 -763.80354468753694 1.0744183320809955e-13 5.4067861299245136e-14 8.3493549851709759e-09 -0.0057511003279007737 3.2327203596889739e-12 7.0926750553840055e-13 6.3415708735425347e-13 -0.0057511319157988123 -24.261860196399997 -200.43215969199997 73.726546483199982 142.71380061529433 0.0000000000000000 0.0000000000000000 0.0000000000000000 0.0000000000000000 3.1479137167433779 3.3007440727626505 1.1528768498464468 1.0736270258270240 1629.3346105546100 1629.3346105573610 1.0737213311451219 
-24.572361871741776 -188.60298064813034 68.779273258135973 -24.572361871741776 -188.60298064813034 68.779273258135973 -747.62234750175173 1.6519407153302097e-05 -2.2392345896215738e-05 -7.0269445807608261e-06 -752.05950900134292 1.0688672169578695e-13 4.4075854077618715e-14 8.2465891892979926e-09 -0.0057522598570298109 -5.7473200513756129e-13 2.5669779266776976e-12 1.1667010848916841e-12 -0.0057522752233645832 -24.157397762799999 -187.63907770800003 75.309882232799993 165.73632395326644 0.0000000000000000 0.0000000000000000 0.0000000000000000 0.0000000000000000 3.1479343846596888 3.3007520070912575 1.1528632047004648 1.0736270258270249 1608.7173380007553 1608.7173380001302 1.0737134013089311 
-35.428905591075818 -196.44565917147995 75.389225335744868 -35.428905591075818 -196.44565917147983 75.389225335744868 -740.65020028742720 7.3567643044603519e-06 -1.7514254726511486e-05 -3.4709567974524545e-05 0.0000000000000000 1.3936074516607277e-13 5.0071058410594566e-14 7.8385209434372882e-09 -0.0057507338265527655 6.1671640070829804e-12 -1.9677137102370084e-12 1.3394155707887476e-11 0.0000000000000000 -34.885542273181727 -195.41132893576267 81.596679120775832 139.46796289390394 0.0000000000000000 0.0000000000000000 0.0000000000000000 0.0000000000000000 3.1465931580936268 3.2980493614184603 1.1515027590062414 1.0722829738181121 1594.0825533585223 1594.0825533437967 1.0730798077424948 
-19.173715847110358 -195.55604146558622 75.196057389435921 -19.173715847110362 -195.55604146558628 75.196057389435936 -753.95997211359861 8.3834248023186903e-06 -1.1157002508100363e-05 -1.6247920911331620e-05 0.0000000000000000 8.9622753662865762e-14 4.4297898682543746e-14 7.8504456269001821e-09 -0.0057525669839209341 -2.0888076371712398e-12 9.4873994613161174e-13 7.7755565079050586e-13 0.0000000000000000 -18.822600960987238 -194.52970000168264 81.412954998504986 111.95285379220412 0.0000000000000000 0.0000000000000000 0.0000000000000000 0.0000000000000000 3.1481878228276705 3.3012843917059058 1.1531428822295873 1.0736270258270226 1626.1181650214469 1626.1181650211749 1.0738461262825654 
-23.061072319209487 -103.40674967689682 35.059542310967643 -23.061072319209487 -103.40674967689685 35.059542310967636 -731.87413240160629 -2.2833794307971766e-05 2.6729536936548108e-05 -3.6463683451686799e-05 -739.38939823303474 9.9614760884492171e-14 1.3433698597964391e-14 1.0328285782179593e-08 -0.0056013357741308755 -1.2826753127116878e-11 1.7404200468925804e-11 -2.3206898538545417e-11 -0.0056044369145986503 -22.663982073999996 -103.20790935200000 43.238681550399988 69.202643319072678 0.0000000000000000 0.0000000000000000 0.0000000000000000 0.0000000000000000 3.1476220090242717 3.3001362063585842 1.1525603610645179 1.0736270258270231 1581.9446180318753 1582.0864121393997 1.0735745843060895 
-30.638366802256169 -111.04049837350892 39.002378829058287 -30.638366802256161 -111.04049837350892 39.002378829058280 -712.34504753538738 1.7850549713371810e-06 4.1947857487478460e-05 -4.9450390507196718e-05 -706.15309554984105 1.2531642390456454e-13 1.2656542480726785e-14 1.0084871604476574e-08 -0.0055887601992648259 1.1089254956852089e-13 2.7241269752546048e-11 -3.4098983404216145e-11 -0.0055869147727702134 -30.151660686400003 -110.77310694400001 46.988755992800002 74.715282964229786 0.0000000000000000 0.0000000000000000 0.0000000000000000 0.0000000000000000 3.1483464246126140 3.3016041660446187 1.1533039633550748 1.0736270258270217 1544.7084588598352 1544.8855279261281 1.0739225530696399 
-19.085218551852805 -103.76914293834604 42.177259476217884 -19.085218551852801 -103.76914293834604 42.177259476217891 -697.91442092743739 -2.7882763824513003e-05 2.1766651130801029e-05 -5.2529411435451767e-05 -699.29723388170430 8.8096197004006171e-14 9.5479180117763462e-15 9.8888701671739926e-09 -0.0055818835164410004 -1.7804465802608978e-11 1.7022963470285774e-11 -3.0300275954753653e-11 -0.0055786900805269166 -18.735150314000002 -103.56704831999998 50.008419303199993 79.719497061372692 0.0000000000000000 0.0000000000000000 0.0000000000000000 0.0000000000000000 3.1476825585561987 3.3002563570128380 1.1526199166607507 1.0736270258270233 1521.2064671134760 1521.0373577160735 1.0736013840985124 
-25.922815009341001 -98.643656910454354 43.201134554777816 -25.922815009340987 -98.643656910454396 43.201134554777816 -708.02058628782709 1.1137192246312074e-06 9.8695145834186259e-06 -8.1249388845938718e-05 0.0000000000000000 1.0877410083764971e-13 2.6645352591003761e-15 9.8256638381144512e-09 -0.0055910562114483593 -2.7352049230650253e-12 1.7404432444885598e-11 -4.3025414687480167e-11 0.0000000000000000 -25.491879232152165 -98.487589184379729 50.982237960580505 72.292163684038698 0.0000000000000000 0.0000000000000000 0.0000000000000000 0.0000000000000000 3.1475563765855394 3.3000238030954323 1.1525140439627526 1.0736270258270246 1536.8602548829886 1536.3680252044242 1.0735507606851795 
-25.817410439791175 -104.35299341252127 103.90956379352657 -25.817410439791164 -104.35299341252129 103.90956379352657 -183.65859355647751 2.4325771595353140e-05 8.1028075997641730e-05 -1.0396107276176142e-05 0.0000000000000000 8.1326972209384015e-09 -2.4278317505152939e-07 -4.5064245482759065e-07 -0.0055514213414078091 4.2471737717597191e-10 5.9863648742742705e-12 -1.2621742271245178e-09 0.0000000000000000 -25.283559732051039 -104.23282252886388 108.75695162467670 96.378087069502698 0.0000000000000000 0.0000000000000000 0.0000000000000000 0.0000000000000000 3.1760189178481668 3.3587154387466560 1.1826888520300836 1.0920120833937406 665.95489130831299 665.95456119213611 1.0874233458067295 
-26.473232335670769 -118.25432603581257 105.88270883330370 -26.473232335670779 -118.25432603581251 105.88270883330370 -131.37723540195168 3.5134178175442078e-05 4.5210388260912903e-06 -2.9203895524282576e-05 0.0000000000000000 1.2290043954483287e-07 -6.3366111959334357e-07 -8.4692492743457332e-07 -0.0057462969413191491 3.9967502924365629e-10 -6.7651681535083556e-10 -1.0697307834783893e-09 0.0000000000000000 -25.913646985361510 -118.01095136745833 110.66456878241424 88.846747377876298 0.0000000000000000 0.0000000000000000 0.0000000000000000 0.0000000000000000 3.2312859723894394 3.4758579070131757 1.2447457317144455 1.1080653737120492 679.68023466388081 679.68042866434587 1.1157752732523636 
-37.075548341946607 -112.72438559126141 107.36553787960806 -37.075548341946607 -112.72438559126145 107.36553787960804 -135.46180444840468 -2.6623000315245228e-05 4.3782381743020240e-05 2.7050457487565988e-05 0.0000000000000000 -3.3273029245973400e-09 -9.7777687517796443e-07 -1.0165457250534182e-06 -0.0055134202292966396 -3.1076846720818593e-10 -1.4370347842666874e-10 2.3918681308323233e-10 0.0000000000000000 -36.236867317722961 -112.72601430119678 112.03758904139967 95.996160021407249 0.0000000000000000 0.0000000000000000 0.0000000000000000 0.0000000000000000 3.2370026834775802 3.4882088978867816 1.2514254213822802 1.1140177362200234 699.00470959385382 699.00465554748769 1.1186845121625286 
-34.089740936479025 -105.02762239244235 100.50094708515401 -34.089740936479046 -105.02762239244235 100.50094708515404 -180.03341281872173 1.2309320474710084e-06 9.2131492121185602e-05 -1.4835185994403840e-05 0.0000000000000000 1.1236077309960070e-07 -6.4000501831048607e-07 -6.8898456442206848e-07 -0.0056714426500403562 3.4427150067373117e-10 4.5204619121231158e-11 -9.1837762810899334e-10 0.0000000000000000 -33.380789828628046 -105.09637623893835 105.63342596379557 85.433794965156210 0.0000000000000000 0.0000000000000000 0.0000000000000000 0.0000000000000000 3.2138579006245793 3.4378220883817407 1.2240320748938343 1.1017127201331069 708.28055730738788 708.28038260265612 1.1063444238826172 
-113.68835194625876 -161.38294649006656 120.67058621394156 -113.68835194625876 -161.38294649006659 120.67058621394155 -452.84404094489372 4.2294312521702697e-06 -1.3292878375733899e-05 -3.2543654189634711e-05 -451.22872922061373 3.6656788715561101e-13 3.1641356201816961e-14 5.0430646325594344e-09 -0.0054841792547085091 6.4143085597185938e-12 -1.9810857555465954e-11 -7.4407649123772675e-11 -0.0054780824956199908 -112.21942232800005 -160.66347960400000 124.66427103520003 147.55923210393107 0.0000000000000000 0.0000000000000000 0.0000000000000000 0.0000000000000000 3.1588708980182609 3.3243175940374603 1.1655238110259560 1.0736270258270226 1116.6373186314972 1116.6274215464359 1.0796907788846590 
-100.84970576158685 -158.79087906599938 112.17585587799778 -100.84970576158685 -158.79087906599941 112.17585587799780 -467.82051180242212 -2.9611949044530566e-05 -2.2710208841201508e-05 -6.1477686742882268e-05 0.0000000000000000 3.2837621510850568e-13 4.0523140398818214e-14 5.5674878041145340e-09 -0.0055506190738008479 3.3328196338176743e-11 1.2294030486507499e-11 -4.5718051131657851e-11 0.0000000000000000 -99.532617471171264 -158.09468895943013 116.58484116745363 117.70414803503969 0.0000000000000000 0.0000000000000000 0.0000000000000000 0.0000000000000000 3.1214048591111951 3.2415010333684231 1.1199908284125071 1.0610464483607716 1064.9289470590995 1064.9304958498205 1.0582134209729757 
-105.71721840694570 -149.46744543469785 116.70416049751348 -105.71721840694575 -149.46744543469779 116.70416049751341 -438.64134032291167 -2.5086000612276943e-05 -2.5687571614265073e-05 -2.8177604498554648e-05 0.0000000000000000 3.5590974611920951e-13 2.9864999362416711e-14 5.2879318701570802e-09 -0.0054974940352001764 4.8542499370112610e-11 -3.4676212827810298e-11 -6.3718810159221707e-11 0.0000000000000000 -104.34256255272837 -148.85497981259945 120.89176065121424 119.29379793442074 0.0000000000000000 0.0000000000000000 0.0000000000000000 0.0000000000000000 3.1223869154546926 3.2456718803660034 1.1232687272227935 1.0621216450746309 1018.0600218196766 1018.0289421512642 1.0597393213527750 
-101.85944000666926 -163.01719718390552 120.56917258250921 -101.85944000666920 -163.01719718390544 120.56917258250915 -447.27805221575090 -1.6128688369297723e-05 -3.4753165038150359e-05 -2.9646925186797999e-05 0.0000000000000000 3.3503755325625656e-13 2.5424107263916088e-14 5.0493262904183212e-09 -0.0055031687640201268 4.0756878951020133e-11 -1.8691392058726341e-11 -8.0952945801004640e-11 0.0000000000000000 -100.53040969477119 -162.28305471776312 124.56781543385799 141.51484144144280 0.0000000000000000 0.0000000000000000 0.0000000000000000 0.0000000000000000 3.1253165153032927 3.2528785769987545 1.1275565999890658 1.0630206890449070 1038.8245774125853 1038.8531270205788 1.0617944331301716 
-79.464697605529139 -149.40938220195420 83.644362062993054 -79.464697605529153 -149.40938220195423 83.644362062993068 -484.57106437952950 -7.2872215225405087e-05 -5.2305619025985739e-05 -2.5226291820410984e-05 -485.26978989461810 2.7453039841418563e-13 2.7866597918091429e-14 7.3288859425701958e-09 -0.0057073142569638762 7.2986626002325995e-11 -9.0401349524174505e-12 2.1993705902494011e-11 -0.0057311956365192849 -78.400527573600002 -148.79743798799998 89.448228916799977 108.06316173413846 0.0000000000000000 0.0000000000000000 0.0000000000000000 0.0000000000000000 3.1579370012584240 3.3215281843189080 1.1636580796787099 1.0736270258270242 1172.3643672222190 1172.3643454875869 1.0788085554229949 
-81.234464165033302 -163.27106653024657 81.883032912676015 -81.234464165033302 -163.27106653024657 81.883032912676043 -598.91146558177707 -4.1987273189548941e-05 -8.5854203545023875e-05 -4.6765140784089116e-05 -602.94197036648495 2.7863822360529866e-13 2.5646151868841116e-14 7.4376185210667245e-09 -0.0056857387070527029 5.0147892975198277e-11 -3.2626538611485568e-12 2.9373485315448868e-11 -0.0056848781800091100 -80.149363288800018 -162.53464431600008 87.773009718400019 109.57810873427631 0.0000000000000000 0.0000000000000000 0.0000000000000000 0.0000000000000000 3.1592828266760975 3.3239058013127600 1.1646745057926604 1.0736270258270229 1374.0091466746624 1374.0091535523181 1.0793062805718496 
-85.430202042818181 -160.89955944445816 89.453323792963872 -85.430202042818152 -160.89955944445811 89.453323792963886 -546.57829344404092 -2.9829414080743728e-05 -5.8866792474498209e-05 -8.6580450624764365e-05 0.0000000000000000 2.9440339055497589e-13 4.8072656966269278e-14 6.9702768001889118e-09 -0.0056899707781074855 2.6028225470035650e-11 1.7744798216164391e-11 8.3414960276393448e-12 0.0000000000000000 -84.295478612813938 -160.18443337667750 94.973195224810283 106.11323630727971 0.0000000000000000 0.0000000000000000 0.0000000000000000 0.0000000000000000 3.1200644111816969 3.2437263949872248 1.1236841016932617 1.0624037195144322 1197.1058356859608 1197.1058372113444 1.0598941281596845 
-87.634807754355080 -152.02558686192606 86.994398595346837 -87.634807754355066 -152.02558686192606 86.994398595346851 -525.23999849106974 -3.4292511783576140e-05 -7.6488655287822638e-05 -8.3070733072202973e-05 0.0000000000000000 2.9751201502392632e-13 2.0761170560490427e-14 7.1220664921156640e-09 -0.0056841432779866849 2.5065050342212849e-11 3.2596440701496654e-11 1.2210148643240213e-11 0.0000000000000000 -86.474010682800568 -151.39014911596544 92.634484883397832 94.367740677547317 0.0000000000000000 0.0000000000000000 0.0000000000000000 0.0000000000000000 3.1342483221992699 3.2729670913720805 1.1387657105191655 1.0649816391178089 1183.7808152218570 1183.7807891258119 1.0671296248683646 
-26.455897012375488 -132.89453591693055 135.36956065525382 -26.455897012375488 -132.89453591693058 135.36956065525379 -260.96264136486189 2.4743965429212804e-05 -2.1123789154357866e-05 9.6529514145815397e-05 -276.59036883803594 1.1193823645783141e-13 2.5646151868841119e-14 4.1356091884381385e-09 -0.0053738696835172991 -1.2402371860332043e-10 3.1533929654517742e-11 -1.0655049091751797e-10 -0.0053095678786392172 -26.018656529999991 -132.43089511199997 138.64462455200004 49.421240865332216 0.0000000000000000 0.0000000000000000 0.0000000000000000 0.0000000000000000 3.1461101502482411 3.2968165371549722 1.1507548028742725 1.0782842061926603 757.21441358774121 757.21441363850204 1.0727814980079040 
-33.010204507129664 -134.43428104450985 134.27434190804709 -33.010204507129657 -134.43428104450990 134.27434190804709 -247.58380227369125 -2.1527891748509270e-06 1.7030589954834176e-05 5.3386072414483142e-05 -201.21492150809547 1.3025691636414652e-13 1.1879386363489173e-14 4.2032421987414637e-09 -0.0054702104721728586 -9.8133349063392695e-11 -1.3609802782964732e-10 -3.1729761665308649e-10 -0.0054022988020533845 -32.495446914399992 -133.95681332000001 137.60295016000006 48.530522504776933 0.0000000000000000 0.0000000000000000 0.0000000000000000 0.0000000000000000 3.1827849201569385 3.3739636703721207 1.1912764486718388 1.0911049315676913 806.54803015758489 806.54802878554267 1.0913714940969717 
-28.884163189295741 -136.93873484115875 137.12056587877299 -28.884163189295744 -136.93873484115875 137.12056587877302 -262.24505579339689 2.8427351586195288e-05 2.0910307647428930e-05 3.0641791733421276e-05 -276.16063775729759 1.1809997424450103e-13 2.6534330288541241e-14 4.0275125456901151e-09 -0.0053907149211692498 -1.1370941600948983e-10 3.8263149385646442e-12 -1.7088065303631855e-10 -0.0053452425657404597 -28.418203856399998 -136.43877710800004 140.31002455199999 44.353383947079159 0.0000000000000000 0.0000000000000000 0.0000000000000000 0.0000000000000000 3.1535905734495993 3.3120559835683996 1.1585029317637479 1.0819037547987882 776.00402052432207 776.00402112971653 1.0763154374767026 
-27.214578824261210 -129.93883572584093 140.84075260144741 -27.214578824261206 -129.93883572584085 140.84075260144743 -282.60442211236068 1.3059856655791930e-05 1.5958181938339179e-05 1.8044563217776069e-05 0.0000000000000000 1.1293743717999405e-13 1.8984813721090177e-14 3.7978526989945749e-09 -0.0053282938468444960 -4.4274299106984800e-11 -1.3168256280241821e-11 -7.6219819876137609e-11 0.0000000000000000 -26.768365491316434 -129.50173712462359 143.84833436668455 49.139845408488213 0.0000000000000000 0.0000000000000000 0.0000000000000000 0.0000000000000000 3.1572872744732994 3.3209498015278189 1.1637305267891476 1.0822889219437266 825.93191699130728 825.93191711333429 1.0787389427925760 
-40.674160323111998 -65.333008922857118 151.46522091109574 -40.674160323111998 -65.333008922857090 151.46522091109574 -409.97188747109453 -1.1482607705165101e-05 -7.6361684549934254e-07 2.0770673877283235e-05 -413.53660774371019 1.5507040096451874e-13 -1.2989609388114330e-14 3.1419489232575874e-09 -0.0052630232596210230 2.6554317631089616e-12 3.9148492003114161e-12 -1.3788790600645750e-11 -0.0052584641009237919 -40.068761925200000 -65.476070995999990 153.95338104800004 156.95717166164070 0.0000000000000000 0.0000000000000000 0.0000000000000000 0.0000000000000000 3.1443045904364628 3.2935035094576559 1.1492521242200620 1.0715178791443567 1013.2909180716016 1013.2909137581736 1.0720369672298327 
-53.180062300358294 -59.459974313477993 146.53460032229259 -53.180062300358294 -59.459974313478007 146.53460032229259 -416.44319111320345 -1.2886940031457734e-05 -2.8057157339530119e-06 1.5438002186789212e-05 -418.25127751705350 1.9448331833871177e-13 -1.0547118733938987e-14 3.4463418785435351e-09 -0.0052707246689911178 3.2818911089867144e-12 1.0952993214143195e-11 -3.2242269226063532e-11 -0.0052690821992906669 -52.426757905599978 -59.655776269200025 149.26381449600007 118.05125250056595 0.0000000000000000 0.0000000000000000 0.0000000000000000 0.0000000000000000 3.1508754479519707 3.3072033723343446 1.1563855150530329 1.0718250201227322 1037.7380335103537 1037.7381247750252 1.0753670321927820 
-35.719720012085169 -65.891725371187107 142.05118646757620 -35.719720012085176 -65.891725371187121 142.05118646757617 -397.59819506456887 -3.1546883774002109e-06 1.8087855669609590e-06 6.2125231922043580e-07 -397.36879960925120 1.3958278977099781e-13 -1.3433698597964394e-14 3.7231178140473271e-09 -0.0052765624886947074 -5.2747284058893636e-12 1.0938926549161026e-11 -3.1718937692009337e-11 -0.0052700461239416439 -35.172917262399999 -66.029770167599992 144.99959110400002 155.12084301790807 0.0000000000000000 0.0000000000000000 0.0000000000000000 0.0000000000000000 3.1492482267282500 3.3033146678739134 1.1541121903686451 1.0732585848445182 1002.5856624403846 1002.5856775052508 1.0742979439545426 
-51.142029032875996 -66.457161007088558 139.11133921707463 -51.142029032876025 -66.457161007088573 139.11133921707463 -405.65783491100109 -1.2650554545748203e-05 7.6640765096656292e-06 9.1579256919853409e-06 0.0000000000000000 1.8771095788849837e-13 -8.8817841970012523e-16 3.9046259558972451e-09 -0.0052859384090638596 -4.3154695776126699e-12 1.0660994533211832e-11 -3.3385737318159217e-11 0.0000000000000000 -50.412828244765279 -66.590128188430739 142.20347059834828 136.07757377940416 0.0000000000000000 0.0000000000000000 0.0000000000000000 0.0000000000000000 3.1336655982707149 3.2701318416857390 1.1364620898651825 1.0677604784739658 983.79108262723548 983.79104961385030 1.0660302251885483 
-95.817289265996081 -159.41857799837936 71.215355773346573 -95.817289265996109 -159.41857799837933 71.215355773346573 -705.86680435340043 -1.7562819983875473e-05 -2.5428477011707631e-05 -3.6351864354410215e-05 -706.24925182845266 3.2371327840508002e-13 2.4757973449140991e-14 8.0961939374901704e-09 -0.0056343742471756985 6.3434533632052004e-14 -1.2138487736968711e-13 1.5380483484007508e-13 -0.0056311929609631486 -94.559718839999974 -158.71675115199997 77.626866652000004 109.98746742214213 0.0000000000000000 0.0000000000000000 0.0000000000000000 0.0000000000000000 3.1470835574215337 3.2990386245688446 1.1520014479072993 1.0736270258270251 1534.6853132892793 1534.6853134147664 1.0733096583081958 
-90.881332860995784 -159.16596356338590 76.274163952553138 -90.881332860995812 -159.16596356338593 76.274163952553153 -655.68260157849556 -6.3456070139751981e-05 -5.8448461132685327e-05 -7.4297512538632070e-05 -639.34240505252114 3.0661584382585261e-13 4.5408121707168903e-14 7.7838837597710153e-09 -0.0056450680790775584 2.5025933117580013e-11 6.8756622443008862e-12 2.5078514159619984e-11 -0.0056468267839196963 -89.682139475999989 -158.46640519600001 82.438353807199988 112.88451412247700 0.0000000000000000 0.0000000000000000 0.0000000000000000 0.0000000000000000 3.1487936724161161 3.3022900476713133 1.1535385354035743 1.0736270258270222 1443.8698003103384 1443.8697989406126 1.0740143222694962 
-104.06498161795422 -155.61167952212423 80.659175835409329 -104.06498161795422 -155.61167952212421 80.659175835409329 -647.66202210117524 -1.4712658702154618e-05 -1.3940180416263886e-05 -8.3823383717656106e-05 0.0000000000000000 3.3881231153998215e-13 2.2981616609740740e-14 7.5131776355874536e-09 -0.0056313970255638095 5.4344413422909029e-12 4.2958578634363872e-12 -1.4561232222528684e-11 0.0000000000000000 -102.70986659571734 -154.94403864466588 86.608986019839278 111.02505284862640 0.0000000000000000 0.0000000000000000 0.0000000000000000 0.0000000000000000 3.1503017370323270 3.3057303586266484 1.1554761934670199 1.0717242012271950 1444.9573136876277 1444.9573131249585 1.0749598894638330 
-101.73461874063317 -167.95237365647870 77.569198478560949 -101.73461874063319 -167.95237365647878 77.569198478560963 -686.79190286651499 -8.2530349977331767e-06 -1.7686037660974585e-05 -8.0386217893562987e-05 0.0000000000000000 3.4014457916953234e-13 3.1641356201816955e-14 7.7039334911432888e-09 -0.0056367228228192661 1.0054814571924911e-11 -6.7088101146582972e-12 6.9322231143646161e-12 0.0000000000000000 -100.40706467681501 -167.17391327890167 83.670075146830683 105.53983917324770 0.0000000000000000 0.0000000000000000 0.0000000000000000 0.0000000000000000 3.1474598476397095 3.2998245487885360 1.1524111227981211 1.0720877613003976 1498.1660063387505 1498.1660058530231 1.0735077875771355 
-116.12177166315823 -99.973864424752591 91.134588079494776 -116.12177166315821 -99.973864424752577 91.134588079494748 -538.49440476806831 -1.3971912261852821e-05 -1.9742115001666506e-05 -5.9956399822310540e-05 -545.51612783169185 3.8121204301182599e-13 8.2156503822261600e-15 6.8664700592080408e-09 -0.0055850887031849584 -1.3819294282109820e-11 -1.6843691229636594e-11 -6.5809726160909325e-11 -0.0055871765954781938 -114.62406224400000 -99.805851428000011 96.572263865600007 85.211636250682801 0.0000000000000000 0.0000000000000000 0.0000000000000000 0.0000000000000000 3.1515605828497897 3.3074440230082875 1.1558761957774908 1.0666297699956961 1249.8282519292318 1250.1127901069372 1.0750865006365218 
-112.54294512741311 -91.186746604770192 94.971159592580491 -112.54294512741309 -91.186746604770192 94.971159592580520 -507.72426361772983 -6.1495445233617957e-06 -9.6402175098178988e-07 -6.5174095901515309e-05 -503.50461664400945 3.7345126990828703e-13 1.3322676295501878e-15 6.6296212963834478e-09 -0.0055592014650684887 3.7856095765204675e-13 1.7735868826783512e-11 -7.4902432860940428e-11 -0.0055472701519255615 -111.08756211600000 -91.097641973600034 100.22126851279998 99.535403830130534 0.0000000000000000 0.0000000000000000 0.0000000000000000 0.0000000000000000 3.1617392407230009 3.3296298331044984 1.1679681402753812 1.0709882274458757 1216.0776150897473 1216.3895906853725 1.0807923769271175 
-114.38147516620668 -97.804335503295661 103.55642925576660 -114.38147516620667 -97.804335503295690 103.55642925576657 -465.62583036392391 -6.0652379577123754e-06 -4.2221639567363055e-06 -5.7809418591434791e-05 -464.96747920480539 3.7345126990828703e-13 1.3766765505351940e-14 6.0996061534979162e-09 -0.0055083542828688343 -1.8752968982626310e-11 -3.6153296310100785e-11 -8.1641831720774353e-11 -0.0055095139695845183 -112.90434805199999 -97.655804887999992 108.38681131359999 128.09762094244454 0.0000000000000000 0.0000000000000000 0.0000000000000000 0.0000000000000000 3.1503820946530672 3.3065505061638087 1.1562291958837039 1.0709949351905466 1125.6464817289670 1124.1238713780972 1.0752843018905092 
-108.56297866330431 -104.04578012904987 95.316962093152227 -108.56297866330438 -104.04578012904992 95.316962093152185 -500.66415067470166 -6.5947436147239442e-05 -6.3387299983077997e-06 -6.9253014548131155e-05 0.0000000000000000 3.5657587993398460e-13 1.0325074129013956e-14 6.6082801453148923e-09 -0.0055741149596973127 4.6956220113537529e-13 -3.3697786984060475e-11 -5.2246899523811283e-11 0.0000000000000000 -107.15466629968294 -103.84120130723400 100.55016500991876 102.24201981555134 0.0000000000000000 0.0000000000000000 0.0000000000000000 0.0000000000000000 3.1253236193321627 3.2508499100078962 1.1254726472648497 1.0605826456186933 1126.7723890421266 1126.5357394238051 1.0608088187194158 
-27.405857091429617 -115.58514688961824 98.094064170394503 -27.405857091429628 -115.58514688961817 98.094064170394503 -160.60115374638605 5.1852391485803794e-05 2.2878174247020174e-05 -7.2342140300537850e-05 0.0000000000000000 1.3381607454033416e-07 -6.7904045231115636e-07 -6.1724856398015368e-07 -0.0061148025013077461 -1.5236342387411859e-10 -6.7196118721101214e-10 -1.0085505918333994e-09 0.0000000000000000 -26.889884864405381 -115.37486796036181 103.37575244326078 96.382960025775517 0.0000000000000000 0.0000000000000000 0.0000000000000000 0.0000000000000000 3.2046179425045263 3.4196399674171549 1.2151323869559687 1.1019995633340620 677.13628856863590 677.13520337338571 1.1023120435297000 
-111.00553438307283 -103.82436386658046 149.61903104362605 -111.00553438307287 -103.82436386658043 149.61903104362605 -423.01663194564179 1.3711363746664842e-06 4.6457871599861532e-06 4.0242116584384299e-07 -424.90383216439636 3.7012060083441156e-13 4.5519144009631418e-15 3.2559253071440257e-09 -0.0052486509010580985 -5.8194331817220992e-12 -6.4144496447807345e-12 -1.9841214406982942e-11 -0.0052438784076710380 -109.56833416800004 -103.62177336400003 152.19744990400002 70.302883591683823 0.0000000000000000 0.0000000000000000 0.0000000000000000 0.0000000000000000 3.1420844118945794 3.2881326104921715 1.1460762016397186 1.0706967653494557 1031.6119287202803 1031.6187130148251 1.0705595315492418 