# For a description of the Tecplot format see the Tecplot User's guide.
#
Variables=x,y,z,s_u,s_v,s_w,s_p,mono_f_vel_u,mono_f_vel_v,mono_f_vel_w,const,u_nu,v_nu,w_nu,p_nu,x_nu,y_nu,z_nu,const,u_ref,v_ref,w_ref,vol_ref,x_ref,y_ref,z_ref,const,I1,I2,I3,J,p1,p2,p3
Zone f=fepoint, n=3174, e=16683, et=brick, c=black
-25.1462 -154.539 109.632 -25.146228289740353 -154.53948603061647 109.63175087593305 -191.32465464747926 -1.4649175728560465e-05 -6.0453771852246084e-05 -6.2302001623567817e-05 -185.67466991565431 6.5323482734136462e-11 3.3871294657927820e-11 2.0445111204026034e-07 0.00095726355382356229 -2.2276294513617327e-12 -6.0228628152949763e-12 -2.8139517354455198e-11 0.00094964029904075057 -24.903554063199991 -154.16086777200002 112.24023381839994 89.724962256112903 0.0000000000000000 0.0000000000000000 0.0000000000000000 0.0000000000000000 3.0857949027394649 3.1728047040075462 1.0870028644398926 1.0439286632942935 503.70166660290243 503.61143650507012 1.0425766115106982 
-37.798101155104355 -155.67668690360208 112.34214875077497 -37.798101155104384 -155.67668690360196 112.34214875077490 -163.70046808943707 4.8610986626912850e-05 -5.2427874560010272e-05 -3.2258490374421592e-05 0.0000000000000000 -1.9168125422396428e-08 -2.1907662438063864e-07 2.9466507560681494e-07 0.00098974139790332827 6.1230002212717501e-11 -6.1535095076512546e-11 1.4703715149583278e-11 0.0000000000000000 -37.438273663334591 -155.10473791080037 114.93291110338620 89.036758072416930 0.0000000000000000 0.0000000000000000 0.0000000000000000 0.0000000000000000 3.1188998942053181 3.2416954844684045 1.1228264451708088 1.0564182686262091 522.96859363595070 522.98036103816639 1.0596619931386997 
-31.830783244046373 -148.22506436271792 117.47346125282303 -31.830783244046383 -148.22506436271794 117.47346125282307 -144.84221782143317 1.5834439702276011e-05 -3.7955208058348943e-05 -9.5049160187586761e-06 0.0000000000000000 7.7564885070380272e-11 3.0956071039867084e-11 1.8716120653294863e-07 0.00096780977964935249 2.1310387132706197e-11 -1.3482803182689749e-11 1.3851855108916930e-11 0.0000000000000000 -31.542619574254449 -147.87907313389167 119.86135157363466 98.260374494724786 0.0000000000000000 0.0000000000000000 0.0000000000000000 0.0000000000000000 3.0991366244270231 3.2006992339162834 1.1015720177904142 1.0509666589284268 461.90058999571005 461.90060425876982 1.0495256941174853 
-28.915983780677568 -143.28786196676299 109.51268869694256 -28.915983780677578 -143.28786196676307 109.51268869694252 -143.18124391339788 1.8775089617443423e-05 -4.7058127317989460e-05 -3.1841395863585729e-05 0.0000000000000000 7.2227598901797307e-11 2.8679447705570741e-11 2.0471363360030637e-07 0.00098289028789352471 9.5313380752662320e-11 -2.5683279431121241e-11 1.3976104192266861e-11 0.0000000000000000 -28.647655777685479 -142.96738158566356 112.12452093910819 112.69127588814607 0.0000000000000000 0.0000000000000000 0.0000000000000000 0.0000000000000000 3.1043344111989817 3.2116123845988076 1.1073004344656239 1.0512144605938134 465.47792793209419 465.53187974844320 1.0522831425185648 
-24.500137675131491 -201.05110653613642 70.003288053495694 -24.500137675131494 -201.05110653613639 70.003288053495694 -479.58672111173979 2.1667312660961616e-06 1.1440457740762125e-07 1.5432954776015587e-06 -481.75696214900120 6.4140040501037264e-11 5.5382198826947615e-11 2.9182645100434002e-07 0.00086712120460439093 -4.4108345964681120e-12 -8.3436285899667799e-13 -1.0911590608640090e-12 0.00086747674752609045 -24.261860196399997 -200.43215969199997 73.726546483199982 142.71380061529433 0.0000000000000000 0.0000000000000000 0.0000000000000000 0.0000000000000000 3.0829947371372914 3.1675578991359927 1.0845716205640965 1.0413758827895632 1009.8174220712592 1009.8175055781160 1.0414277878836342 
-24.394959487493928 -188.19157852977398 71.632453325113644 -24.394959487493932 -188.19157852977398 71.632453325113630 -472.43995418819634 9.1164571523824492e-06 -1.2717460070620947e-05 -3.9449800233439398e-06 -474.85469322837241 6.3944918804459405e-11 4.9446058358881841e-11 2.8823436881708625e-07 0.00086853590297557499 -3.7480816242804999e-12 -1.3564242159259484e-12 -8.1870196313667498e-13 0.00086978233367576382 -24.157397762799999 -187.63907770800003 75.309882232799993 165.73632395326644 0.0000000000000000 0.0000000000000000 0.0000000000000000 0.0000000000000000 3.0830010172172950 3.1675599667203764 1.0845672442485061 1.0413758827895614 997.88578107023079 997.88494049643782 1.0414251771123146 
-35.196610927440801 -196.00419807375096 78.101221027853626 -35.196610927440808 -196.00419807375081 78.101221027853626 -468.71282857802947 3.7032972613289155e-06 -9.9522898234617410e-06 -2.0031603652968325e-05 0.0000000000000000 8.3731285793753329e-11 5.3050508430629861e-11 2.7397162138953490e-07 0.00086378509449526074 -5.6446169163217853e-12 -2.6717378855410163e-12 -7.5801664346939871e-14 0.0000000000000000 -34.885542273181727 -195.41132893576267 81.596679120775832 139.46796289390394 0.0000000000000000 0.0000000000000000 0.0000000000000000 0.0000000000000000 3.0822697011179243 3.1660915694916096 1.0838303401549529 1.0406265345006875 989.98254536460388 989.98240040200938 1.0410713147517512 
-19.023609809983437 -195.11799004481787 77.912179026093767 -19.023609809983437 -195.11799004481784 77.912179026093767 -475.96930562569474 4.5881551034491204e-06 -6.2552235703140489e-06 -9.3459647984136455e-06 0.0000000000000000 5.4108315050704903e-11 5.2643056580592429e-11 2.7438842931104546e-07 0.00087039578253658115 -3.0817818490912198e-12 -6.8395269930861794e-13 -1.4073166554704156e-12 0.0000000000000000 -18.822600960987238 -194.52970000168264 81.412954998504986 111.95285379220412 0.0000000000000000 0.0000000000000000 0.0000000000000000 0.0000000000000000 3.0831448410904962 3.1678557269087677 1.0847193115813420 1.0413758827895612 1007.7368279104596 1007.7375305515486 1.0414989892782069 
-22.891311236880291 -103.32188290507625 38.632954397576903 -22.891311236880288 -103.32188290507624 38.632954397576903 -469.81782159207938 -1.3625492376750246e-05 1.5652999227774046e-05 -2.1285998883506220e-05 -474.05988217618818 6.1192703681989245e-11 1.0202783062851495e-11 3.6099374689513297e-07 0.00078562004508455426 -1.0907234964353843e-11 1.4505245075604318e-11 -1.8030887446958594e-11 0.00078418791814007047 -22.663982073999996 -103.20790935200000 43.238681550399988 69.202643319072678 0.0000000000000000 0.0000000000000000 0.0000000000000000 0.0000000000000000 3.0828315747327020 3.1672239159619795 1.0844007404099314 1.0413758827895603 993.71232121995774 993.71224099065353 1.0413459516745036 
-30.430293806253982 -110.92637339686405 42.491574433841194 -30.430293806253982 -110.92637339686405 42.491574433841201 -458.29031790563590 1.1497945905474499e-06 2.4811310310658862e-05 -2.8857339241890732e-05 -454.27450106396287 7.5000408661374252e-11 1.3720968805586155e-11 3.5248601903958843e-07 0.00079506207280879884 -2.5482999940738325e-12 2.5315137403215513e-11 -2.2836377571737925e-11 0.00080240138276349386 -30.151660686400003 -110.77310694400001 46.988755992800002 74.715282964229786 0.0000000000000000 0.0000000000000000 0.0000000000000000 0.0000000000000000 3.0832452989356507 3.1680578340470462 1.0848209480982427 1.0413758827895598 971.78413489521927 971.78442818688029 1.0415482814266499 
-18.935559970047013 -103.68288720591229 45.598641648438843 -18.935559970047017 -103.68288720591228 45.598641648438843 -449.75695414850765 -1.6565293099825516e-05 1.2804705015982880e-05 -3.0759663745903293e-05 -450.51131126012814 5.3946389022563330e-11 1.0369538561150193e-11 3.4563535677989421e-07 0.00080244673449930432 -1.4545013070613074e-11 1.3756112790060639e-11 -2.3883446508741320e-11 0.00080308702914826645 -18.735150314000002 -103.56704831999998 50.008419303199993 79.719497061372692 0.0000000000000000 0.0000000000000000 0.0000000000000000 0.0000000000000000 3.0828650222253464 3.1672905228948234 1.0844338917067675 1.0413758827895603 957.86654524403684 957.86662056989428 1.0413615497957309 
-25.738584535708096 -98.577045854049146 46.600647406130314 -25.738584535708092 -98.577045854049160 46.600647406130300 -455.97921233922887 4.2116829982896068e-07 5.9982461935960509e-06 -4.7460483176951679e-05 0.0000000000000000 6.6406699583687612e-11 8.0025430726493596e-12 3.4342607158066580e-07 0.00079235067548906230 -7.4133552340207268e-12 1.2124339046149555e-11 -3.0721771406588054e-11 0.0000000000000000 -25.491879232152165 -98.487589184379729 50.982237960580505 72.292163684038698 0.0000000000000000 0.0000000000000000 0.0000000000000000 0.0000000000000000 3.0827905982947197 3.1671477117052982 1.0843655913155399 1.0413758827895601 967.50441290596768 967.50422902603418 1.0413283332947776 
-25.594260918135816 -104.29607699433896 106.02562571056794 -25.594260918135809 -104.29607699433895 106.02562571056795 -141.04226283135944 1.5092073104829070e-05 5.0672855064442095e-05 -8.9283322069173111e-06 0.0000000000000000 1.8379592127758484e-08 9.6589148522618997e-08 2.2984011019035980e-07 0.00089803423007887883 -6.6272700318570624e-11 5.7583663012648312e-12 1.8017443496425855e-10 0.0000000000000000 -25.283559732051039 -104.23282252886388 108.75695162467670 96.378087069502698 0.0000000000000000 0.0000000000000000 0.0000000000000000 0.0000000000000000 3.0997046148892857 3.2015127638324392 1.1018034313325193 1.0524447029132549 445.78931958522986 445.79074808463298 1.0496332601914018 
-26.240122654058307 -118.14221353500059 107.97004588856954 -26.240122654058297 -118.14221353500068 107.97004588856954 -106.13042838044646 2.4040021125544805e-05 4.8346496201948509e-06 -1.9378573599200825e-05 0.0000000000000000 7.7045397640006670e-09 1.2695474748845909e-07 2.8839037282843965e-07 0.00094145175519156656 -5.1837713283231214e-11 1.1051874654446093e-10 1.5944890910037308e-10 0.0000000000000000 -25.913646985361510 -118.01095136745833 110.66456878241424 88.846747377876298 0.0000000000000000 0.0000000000000000 0.0000000000000000 0.0000000000000000 3.1339786682168973 3.2724540701989464 1.1385088658346558 1.0623461462125963 451.43094288032989 451.42922191973088 1.0670456312028418 
-36.730662750065243 -112.70705432710771 109.40891814447004 -36.730662750065228 -112.70705432710780 109.40891814447011 -108.63613726605286 -1.4876358761388894e-05 3.1408220356284355e-05 2.0026770612198569e-05 0.0000000000000000 4.9178935758286242e-09 2.3470134810758221e-07 2.6216999282442426e-07 0.00090740784602072900 4.2954205422998253e-11 2.2772129759341405e-11 -4.5142669903335895e-11 0.0000000000000000 -36.236867317722961 -112.72601430119678 112.03758904139967 95.996160021407249 0.0000000000000000 0.0000000000000000 0.0000000000000000 0.0000000000000000 3.1377782515017758 3.2803848009033483 1.1426495975944055 1.0660055950808713 463.75224576909432 463.75523399569590 1.0689533094276056 
-33.796821422267783 -105.04150708467488 102.73605856455268 -33.796821422267811 -105.04150708467481 102.73605856455274 -139.25790512276137 1.2085095110205251e-06 5.8065644182960772e-05 -1.3830650547042281e-05 0.0000000000000000 -4.5148177270822296e-08 2.2145251419633922e-07 1.5182713113211194e-07 0.00092089803348400384 -5.1917656881365231e-11 6.8300970206707653e-12 1.5425867667817850e-10 0.0000000000000000 -33.380789828628046 -105.09637623893835 105.63342596379557 85.433794965156210 0.0000000000000000 0.0000000000000000 0.0000000000000000 0.0000000000000000 3.1219648233216284 3.2471966641946652 1.1252417264734484 1.0581041642312745 472.80539361388588 472.82208138434896 1.0607680914233699 
-113.06036602902863 -161.07587179541420 122.41540082005447 -113.06036602902866 -161.07587179541423 122.41540082005446 -307.65685026015899 2.3088013546445873e-06 -7.2905265422603735e-06 -1.8851128843238419e-05 -306.70894053062062 2.2636705010459224e-10 3.6916525392172161e-11 1.7626490755873192e-07 0.00088315962462400541 -9.9479187478802257e-13 3.4422501637472493e-12 9.6761994682331052e-12 0.00088237996241657957 -112.21942232800005 -160.66347960400000 124.66427103520003 147.55923210393107 0.0000000000000000 0.0000000000000000 0.0000000000000000 0.0000000000000000 3.0896519800832754 3.1814269102133212 1.0917891169028879 1.0413758827895598 724.08617638501437 724.08962364949809 1.0449211420083078 
-100.28663392489111 -158.49373910231944 114.10211252454891 -100.28663392489112 -158.49373910231949 114.10211252454886 -316.01701537688803 -1.7120574149761719e-05 -1.2626043919911408e-05 -3.6227048490923540e-05 0.0000000000000000 2.0296110625483976e-10 3.5716596347157292e-11 1.9459457334392030e-07 0.00089577772845899294 -4.2873968687392900e-12 6.5873410895466204e-12 1.5877915470835511e-11 0.0000000000000000 -99.532617471171264 -158.09468895943013 116.58484116745363 117.70414803503969 0.0000000000000000 0.0000000000000000 0.0000000000000000 0.0000000000000000 3.0664828725053277 3.1324456849595639 1.0659426817794511 1.0340884180990781 690.45541206885321 690.45463380653348 1.0324165348690324 
-105.12953571149446 -149.20603980570610 118.53369543573514 -105.12953571149453 -149.20603980570607 118.53369543573521 -299.60814990367351 -1.4747522884072096e-05 -1.4057401672623107e-05 -1.6865352112018181e-05 0.0000000000000000 2.1183678422520558e-10 3.1413927015222498e-11 1.8482353691950948e-07 0.00088574179420265731 -2.9102211455665138e-12 7.2725004295372741e-12 1.6638380870475471e-11 0.0000000000000000 -104.34256255272837 -148.85497981259945 120.89176065121424 119.29379793442074 0.0000000000000000 0.0000000000000000 0.0000000000000000 0.0000000000000000 3.0675060218034549 3.1352382206647738 1.0677289362621349 1.0346532157858921 664.62802785802296 664.63357636985040 1.0332736000015468 
-101.29126280534544 -162.70385882464552 122.31615331932760 -101.29126280534545 -162.70385882464549 122.31615331932754 -304.04147967969953 -9.6589949760915479e-06 -1.9577574663567128e-05 -1.7073538946566517e-05 0.0000000000000000 2.0480407647571752e-10 3.7650826900659240e-11 1.7648374495138339e-07 0.00088678833250613190 -3.1890350602182448e-12 6.7462152201566244e-12 1.6609899986004600e-11 0.0000000000000000 -100.53040969477119 -162.28305471776312 124.56781543385799 141.51484144144280 0.0000000000000000 0.0000000000000000 0.0000000000000000 0.0000000000000000 3.0693546603088078 3.1393818083314735 1.0700258378430201 1.0351886629116978 675.73000526463477 675.73189383264628 1.0343957310967644 
-79.009751510574631 -149.14819911447174 86.180033281851522 -79.009751510574660 -149.14819911447174 86.180033281851507 -324.08631927609355 -4.2684194674806853e-05 -3.0050461449000046e-05 -1.4537537860623320e-05 -324.24647867804100 1.6398206403867022e-10 3.1399272071297446e-11 2.5615894383435034e-07 0.00088963128776732732 -2.0712752271579452e-11 -1.6700764978620461e-11 -5.0049300274493527e-12 0.00089155859561067436 -78.400527573600002 -148.79743798799998 89.448228916799977 108.06316173413846 0.0000000000000000 0.0000000000000000 0.0000000000000000 0.0000000000000000 3.0885980364143255 3.1790071760057321 1.0904214275860391 1.0413758827895592 751.78111615029968 751.78108091545050 1.0442575194722694 
-80.770569870454139 -162.95675515476228 84.456325002624965 -80.770569870454139 -162.95675515476233 84.456325002624936 -390.72515145811934 -2.4928321153953385e-05 -4.8871477215443194e-05 -2.6814727129208523e-05 -392.95454776060035 1.6721481144177377e-10 3.7780500949935458e-11 2.5995948238488614e-07 0.00086492988109754363 9.9141387802648577e-12 -2.1106104011469478e-11 8.4823123729841927e-13 0.00085919537656569029 -80.149363288800018 -162.53464431600008 87.773009718400019 109.57810873427631 0.0000000000000000 0.0000000000000000 0.0000000000000000 0.0000000000000000 3.0894378095976265 3.1805858690503923 1.0911574984668904 1.0413758827895601 869.87263032309920 869.87263800802805 1.0446200128959897 
-84.945093481362122 -160.59433744862415 91.864919281642457 -84.945093481362150 -160.59433744862415 91.864919281642429 -360.45067921313188 -1.8212055288593285e-05 -3.3748983220049515e-05 -4.9926132390222818e-05 0.0000000000000000 1.7485914105552780e-10 3.6692038296592955e-11 2.4362454364990072e-07 0.00087285798718898604 -1.9841869956395132e-11 3.5410532051093605e-12 -1.4668440915774086e-11 0.0000000000000000 -84.295478612813938 -160.18443337667750 94.973195224810283 106.11323630727971 0.0000000000000000 0.0000000000000000 0.0000000000000000 0.0000000000000000 3.0671545238867561 3.1354278026703919 1.0682769200435169 1.0350169643340983 766.83526976819951 766.83525588713860 1.0335281820613778 
-87.138552382663207 -151.75437653162410 89.458515163270604 -87.138552382663207 -151.75437653162410 89.458515163270647 -348.36873525473789 -2.0574904371036036e-05 -4.3784590417749115e-05 -4.8197244984740440e-05 0.0000000000000000 1.7887148706652312e-10 3.2602975874596041e-11 2.4893033145900745e-07 0.00088000994149535451 -4.1157564957934084e-12 -5.3513950720585922e-12 -5.9254467325479658e-12 0.0000000000000000 -86.474010682800568 -151.39014911596544 92.634484883397832 94.367740677547317 0.0000000000000000 0.0000000000000000 0.0000000000000000 0.0000000000000000 3.0753480793192494 3.1521125213200070 1.0767729383283999 1.0364684271506188 759.73587394185972 759.73590644422848 1.0376761013229643 
-26.268971197849261 -132.69665000812827 136.80041451046495 -26.268971197849265 -132.69665000812827 136.80041451046492 -189.42305381524287 1.5518870368948612e-05 -1.3342724172396573e-05 6.0819302356508694e-05 -199.32810670860042 6.7377894930054083e-11 2.3789137326701848e-11 1.4454792474083433e-07 0.00087157872426859662 2.1469253140351437e-11 -7.3565017579071853e-12 3.2374821064968915e-11 0.00085989681336802286 -26.018656529999991 -132.43089511199997 138.64462455200004 49.421240865332216 0.0000000000000000 0.0000000000000000 0.0000000000000000 0.0000000000000000 3.0819877608313955 3.1654541012860329 1.0834754946267380 1.0442582870358357 502.40683740360322 502.86581039660786 1.0409203338274862 
-32.790139151374433 -134.23049368674583 135.72858893954051 -32.790139151374433 -134.23049368674583 135.72858893954057 -181.31772647466897 -1.7832894389361408e-06 9.7585133251771008e-06 3.5360169659710455e-05 -154.07029797823637 7.9323894675020767e-11 2.4492907702011735e-11 1.4691114280651618e-07 0.00088751989057482810 1.1717502384735597e-11 1.6170355011912385e-11 7.0800436151282348e-11 0.00085474818506478501 -32.495446914399992 -133.95681332000001 137.60295016000006 48.530522504776933 0.0000000000000000 0.0000000000000000 0.0000000000000000 0.0000000000000000 3.1041303752739946 3.2109703501842768 1.1068578197380885 1.0520020753777242 534.11738629367983 534.08627953692132 1.0520364658349697 
-28.684959704374975 -136.72534855303067 138.51401937540783 -28.684959704374986 -136.72534855303067 138.51401937540780 -190.96332811261095 1.8699540259214629e-05 1.1540586397727296e-05 1.9172521023666694e-05 -200.20347677738425 7.1805242307654295e-11 2.5638768885727362e-11 1.4076966348142150e-07 0.00086874521040558106 2.5953765677811456e-11 -1.0064527200690012e-11 2.7980620882929221e-11 0.00085757917343660419 -28.418203856399998 -136.43877710800004 140.31002455199999 44.353383947079159 0.0000000000000000 0.0000000000000000 0.0000000000000000 0.0000000000000000 3.0866881676155704 3.1749458418282757 1.0882645101846433 1.0465518866036536 516.31692963366652 516.26959858228656 1.0431880523020356 
-27.023817003077561 -129.75227825933183 142.15474527436223 -27.023817003077557 -129.75227825933186 142.15474527436220 -203.32638700177867 7.3310368450880011e-06 9.0667864249834121e-06 1.2033113547990451e-05 0.0000000000000000 6.8762232019459191e-11 2.2412904865376504e-11 1.3274236998483957e-07 0.00086055867548747204 1.0509395400474882e-12 -4.9632742464345839e-13 1.5642965159033967e-11 0.0000000000000000 -26.768365491316434 -129.50173712462359 143.84833436668455 49.139845408488213 0.0000000000000000 0.0000000000000000 0.0000000000000000 0.0000000000000000 3.0886965633563146 3.1794460855634337 1.0907619366700037 1.0467098416789906 545.86730649374124 546.00071804310221 1.0443854898130562 
-40.415344881257759 -65.394069054014594 152.55228169418740 -40.415344881257752 -65.394069054014594 152.55228169418746 -282.66365281045375 -7.2726257332826614e-06 -2.8801360798896608e-07 1.2258528205956442e-05 -284.80679715156299 9.3294164060786500e-11 -7.3364647690254969e-12 1.0981721132452549e-07 0.00084694679343522313 -2.5088803424354934e-12 -6.6714409746287406e-13 4.6120228559511069e-12 0.00084590999080051059 -40.068761925200000 -65.476070995999990 153.95338104800004 156.95717166164070 0.0000000000000000 0.0000000000000000 0.0000000000000000 0.0000000000000000 3.0807570550670822 3.1630724615386896 1.0823251915474192 1.0401217008997194 662.49249859828285 662.49236857804567 1.0403503941176591 
-52.858015181547700 -59.543544283034741 147.72697602709209 -52.858015181547678 -59.543544283034741 147.72697602709212 -286.77223238627369 -7.6072042321653111e-06 -1.8760090848197632e-06 9.5329920778705796e-06 -287.79575218814904 1.1608476679914049e-10 -1.0040301923197602e-11 1.2045635777724328e-07 0.00084657390072715377 -1.7482749322484266e-12 -2.4475355527390468e-12 7.4157417498055312e-12 0.00084676856363127817 -52.426757905599978 -59.655776269200025 149.26381449600007 118.05125250056595 0.0000000000000000 0.0000000000000000 0.0000000000000000 0.0000000000000000 3.0848046331103016 3.1713593996055272 1.0865653742983041 1.0403250160511708 678.08769758782387 678.08763958968132 1.0423890767895458 
-35.485954948029857 -65.950644085206861 143.33932504250316 -35.485954948029864 -65.950644085206847 143.33932504250313 -275.07238868815688 -2.2164458766830491e-06 1.2856774706995097e-06 7.0913396058456292e-07 -274.91336754457177 8.4264664690358883e-11 -7.0762840032045907e-12 1.3013051614052529e-07 0.00085051433188654941 -4.0631551367056761e-13 -4.2763959528990470e-13 3.9511523955608589e-12 0.00085035043537274332 -35.172917262399999 -66.029770167599992 144.99959110400002 155.12084301790807 0.0000000000000000 0.0000000000000000 0.0000000000000000 0.0000000000000000 3.0838845187562995 3.1693087077827333 1.0854325555925697 1.0412003249307944 656.49570495789362 656.49637069709013 1.0418416791240293 
-50.830286509562015 -66.513912551044470 140.46227106060610 -50.830286509562022 -66.513912551044484 140.46227106060618 -280.18362703092004 -7.6686531053960518e-06 4.1730346462024665e-06 5.8430528299197277e-06 0.0000000000000000 1.1237012709219841e-10 -6.8187122614915552e-12 1.3647402585803547e-07 0.00085014535640454104 -9.9071274833137728e-13 2.2373720082769688e-13 4.9138512803638172e-12 0.0000000000000000 -50.412828244765279 -66.590128188430739 142.20347059834828 136.07757377940416 0.0000000000000000 0.0000000000000000 0.0000000000000000 0.0000000000000000 3.0745068199030983 3.1498723025568598 1.0753641746830596 1.0379655109014465 645.23730936411221 645.23735133835737 1.0369906125262707 
-95.279662066139650 -159.11903222535705 74.016502666255690 -95.279662066139650 -159.11903222535699 74.016502666255718 -453.73073441345036 -1.0397958253636006e-05 -1.4384985744894932e-05 -2.0760990827174683e-05 -453.78972825992122 1.9378977589301627e-10 3.5997926861597307e-11 2.8297785714670448e-07 0.00086521749764145912 -2.4015080557547849e-13 -3.0419111295643763e-12 -7.6773837099903894e-13 0.00086548951513500691 -94.559718839999974 -158.71675115199997 77.626866652000004 109.98746742214213 0.0000000000000000 0.0000000000000000 0.0000000000000000 0.0000000000000000 3.0825191126114642 3.1665918924643153 1.0840812141221627 1.0413758827895585 964.55192230486489 964.55192687150895 1.0411909688343122 
-90.368662581594947 -158.86738599683386 78.967257918303744 -90.368662581594918 -158.86738599683389 78.967257918303773 -424.45196845682204 -3.7359760191552047e-05 -3.3306839224042719e-05 -4.2633171027338372e-05 -414.59483897968880 1.8479497099210818e-10 3.5889125005184042e-11 2.7206212482866476e-07 0.00086538668876638626 -1.7269338887313428e-12 -7.8723410427197526e-12 7.2655025827792765e-14 0.00087077840810885650 -89.682139475999989 -158.46640519600001 82.438353807199988 112.88451412247700 0.0000000000000000 0.0000000000000000 0.0000000000000000 0.0000000000000000 3.0834309263874999 3.1683605332125140 1.0849372703362650 1.0413758827895585 911.57152875209749 911.57152228178722 1.0415984416516724 
-103.48565287434802 -155.32672461654991 83.258608734603797 -103.48565287434802 -155.32672461654997 83.258608734603797 -420.27429261229463 -8.5646540233346366e-06 -7.7833946628867590e-06 -4.8593995574959543e-05 0.0000000000000000 2.0882574836011969e-10 3.4242220170455084e-11 2.6260028374025518e-07 0.00086886441534311473 2.9086689280143550e-12 1.7533974154242160e-12 -6.3591631751853478e-12 0.0000000000000000 -102.70986659571734 -154.94403864466588 86.608986019839278 111.02505284862640 0.0000000000000000 0.0000000000000000 0.0000000000000000 0.0000000000000000 3.0843984293558013 3.1704349230698488 1.0860451601145664 1.0402951948745911 913.15617569190738 913.15620291793289 1.0421445589160285 
-101.16707265396110 -167.62012002900417 80.234631330003708 -101.16707265396103 -167.62012002900426 80.234631330003637 -442.66665702008163 -5.0011042783914621e-06 -9.8428063620556272e-06 -4.6428072124732866e-05 0.0000000000000000 2.0457148475205853e-10 3.9939995755133850e-11 2.6926773788460423e-07 0.00086420816236910676 5.3356621829433617e-12 -1.1653402580365961e-12 4.6035009995555581e-12 0.0000000000000000 -100.40706467681501 -167.17391327890167 83.670075146830683 105.53983917324770 0.0000000000000000 0.0000000000000000 0.0000000000000000 0.0000000000000000 3.0827657650231637 3.1670975933897929 1.0843402868499625 1.0405050218535734 943.46770996540715 943.46770458462845 1.0413178876812885 
-115.48148201847860 -99.902155023424200 93.510272831681419 -115.48148201847859 -99.902155023424228 93.510272831681419 -358.49584203999711 -8.0757175544067244e-06 -1.1142729997799389e-05 -3.4710890839064718e-05 -362.57956492228590 2.3079239749480434e-10 8.6130547138907332e-12 2.3999676024288874e-07 0.00085501535054700927 -1.9999619253985033e-12 -1.6772169204235235e-12 -7.3228977860331549e-12 0.00085524191579227163 -114.62406224400000 -99.805851428000011 96.572263865600007 85.211636250682801 0.0000000000000000 0.0000000000000000 0.0000000000000000 0.0000000000000000 3.0848170537928441 3.1709686310227148 1.0861494224807855 1.0373200370315501 802.36182727799871 802.34411897370944 1.0421737058926743 
-111.92075055526826 -91.148715976900320 97.264897615902072 -111.92075055526827 -91.148715976900334 97.264897615902086 -340.62903310531499 -3.6452588042567832e-06 -5.4052411611044788e-07 -3.8003650148874497e-05 -338.14223988707124 2.2427483481468613e-10 4.5719539265576259e-12 2.3171833607449344e-07 0.00085683074604119783 -1.4728833371614566e-13 4.5931141918829930e-12 -1.7055814995858554e-11 0.00086069526180967916 -111.08756211600000 -91.097641973600034 100.22126851279998 99.535403830130534 0.0000000000000000 0.0000000000000000 0.0000000000000000 0.0000000000000000 3.0911955839068712 3.1843914084804434 1.0932104125873097 1.0399020533506205 783.78269486598288 783.77976303538537 1.0455908766352560 
-113.74998471618761 -97.740941351011884 105.66679137616991 -113.74998471618757 -97.740941351011855 105.66679137616990 -316.31011452772566 -3.4481551904556793e-06 -2.2004027488786471e-06 -3.3101891849713818e-05 -315.86502920334453 2.2762326745695560e-10 7.6132988802157781e-12 2.1319330212321577e-07 0.00086047526223780621 1.7661479420409709e-12 6.9161420746906567e-12 -3.0950336974555328e-12 0.00086080956459037459 -112.90434805199999 -97.655804887999992 108.38681131359999 128.09762094244454 0.0000000000000000 0.0000000000000000 0.0000000000000000 0.0000000000000000 3.0845503916826496 3.1709601929424172 1.0864209500509483 1.0398481542583524 730.78845027699447 730.87033409958906 1.0423164553110149 
-107.96090738608160 -103.95846411707205 97.603313994865331 -107.96090738608156 -103.95846411707211 97.603313994865374 -336.43227955271391 -3.7613817160166370e-05 -3.5694814811720772e-06 -4.0511141536467685e-05 0.0000000000000000 2.1701974939336566e-10 1.0499878744241187e-11 2.3097217116685445e-07 0.00086090608988236928 -1.0275794856263439e-11 2.9016860714806548e-12 2.5653746502408358e-12 0.0000000000000000 -107.15466629968294 -103.84120130723400 100.55016500991876 102.24201981555134 0.0000000000000000 0.0000000000000000 0.0000000000000000 0.0000000000000000 3.0692267038060508 3.1384401798404684 1.0692027911269799 1.0338588877496622 729.42171084349911 729.40719583579983 1.0339969087849274 
-27.191733835024099 -115.48611654207255 100.39311904109569 -27.191733835024113 -115.48611654207254 100.39311904109569 -125.25258142379622 3.1879127268572238e-05 1.6452527870886678e-05 -4.6603875025025684e-05 0.0000000000000000 6.3624860887370224e-09 1.5069472873282152e-07 2.1111433310999132e-07 0.00099673668228512035 4.1586980196388643e-11 1.0557973120090734e-10 1.5580507037625547e-10 0.0000000000000000 -26.889884864405381 -115.37486796036181 103.37575244326078 96.382960025775517 0.0000000000000000 0.0000000000000000 0.0000000000000000 0.0000000000000000 3.1169571906452185 3.2373407656215063 1.1204033744090187 1.0584567163384953 450.24572098390865 450.23651265723635 1.0584843435699158 
-110.39111318542845 -103.73789648646311 150.74552526878622 -110.39111318542842 -103.73789648646311 150.74552526878625 -292.11000022995324 8.9100346860146825e-07 2.9745872538617651e-06 2.9768988657380608e-07 -293.30416934117187 2.2147263190053224e-10 1.0385969861914646e-11 1.1380085851442347e-07 0.00083717452448009097 2.0311985047031894e-12 3.4665578179091041e-12 5.2375539411835377e-12 0.00083654969329362988 -109.56833416800004 -103.62177336400003 152.19744990400002 70.302883591683823 0.0000000000000000 0.0000000000000000 0.0000000000000000 0.0000000000000000 3.0794855817484268 3.1602181243703602 1.0807374287576381 1.0396447622589728 676.60206873336915 676.70682418921376 1.0395888891499037 