# For a description of the Tecplot format see the Tecplot User's guide.
#
Variables=x,y,z,s_u,s_v,s_w,s_p,mono_f_vel_u,mono_f_vel_v,mono_f_vel_w,const,u_nu,v_nu,w_nu,p_nu,x_nu,y_nu,z_nu,const,u_ref,v_ref,w_ref,vol_ref,x_ref,y_ref,z_ref,const,I1,I2,I3,J,p1,p2,p3
Zone f=fepoint, n=3174, e=16683, et=brick, c=black
-25.1210 -154.500 109.908 -25.121042359413327 -154.50024915455108 109.90778388635300 -57.727916405155142 -9.0065747345275884e-06 -3.1362483138536288e-05 -3.9232071750497186e-05 -50.565075274637849 8.7195223263947241e-11 4.5238202073250016e-11 2.7149700176920533e-07 -0.00054718821143790721 3.9758246798572108e-11 3.1395293378911789e-10 -1.7410782288240692e-10 -0.00047263320269353451 -24.903554063199991 -154.16086777200002 112.24023381839994 89.724962256112903 0.0000000000000000 0.0000000000000000 0.0000000000000000 0.0000000000000000 3.0753390403968046 3.1518564923994123 1.0765207745904521 1.0378657090130308 377.82103601919994 377.84684634191422 1.0375492031483908 
-37.739958829831089 -155.52870622104223 112.64083833823308 -37.739958829831060 -155.52870622104226 112.64083833823312 -42.568859928543198 2.3455349168285771e-05 -1.6973060339281076e-05 -1.7414956029009860e-05 0.0000000000000000 -9.3639682675557461e-08 -7.1719581861901193e-08 1.0500662900363595e-07 -0.00068363933803233877 -3.0744737758395972e-10 2.2628077846602344e-10 -4.9045396225363668e-10 0.0000000000000000 -37.438273663334591 -155.10473791080037 114.93291110338620 89.036758072416930 0.0000000000000000 0.0000000000000000 0.0000000000000000 0.0000000000000000 3.0875262440838465 3.1771032484918171 1.0895900698776133 1.0423297512155709 397.06386918392792 397.06673097247341 1.0438388954981683 
-31.800876194527245 -148.18920868313506 117.72615086910353 -31.800876194527259 -148.18920868313498 117.72615086910353 -32.984053023237990 6.0141231405960065e-06 -1.0433947887095646e-05 -1.2144744078083662e-05 0.0000000000000000 1.0354125890010835e-10 4.1357972602185100e-11 2.4853720415052294e-07 -0.00066353347457504062 -1.3007906330550210e-11 -4.8345650941617311e-11 2.9968433139448822e-10 0.0000000000000000 -31.542619574254449 -147.87907313389167 119.86135157363466 98.260374494724786 0.0000000000000000 0.0000000000000000 0.0000000000000000 0.0000000000000000 3.0795526969619549 3.1606320676936170 1.0810866625585260 1.0401053565419418 359.07148032412641 359.06658691855120 1.0397483282912736 
-28.888135374670497 -143.25465002119930 109.78907613455218 -28.888135374670476 -143.25465002119930 109.78907613455215 -34.009349503190286 3.4600792767728976e-06 -2.0333365387985920e-05 -7.7331652540948053e-06 0.0000000000000000 9.6412294814385278e-11 3.8291869675077805e-11 2.7184561002258079e-07 -0.00063743222229152476 -3.1822434659496064e-10 -3.7848390305605288e-11 -2.3500165857564208e-11 0.0000000000000000 -28.647655777685479 -142.96738158566356 112.12452093910819 112.69127588814607 0.0000000000000000 0.0000000000000000 0.0000000000000000 0.0000000000000000 3.0816059907303002 3.1648776588332379 1.0832812727953032 1.0402659367998104 365.28802928418372 365.31214654997876 1.0408080972892302 
-24.475408061017188 -200.98696398605657 70.397288035704008 -24.475408061017188 -200.98696398605654 70.397288035704022 -281.06301216430461 2.9555382661522089e-06 2.8059653476433859e-07 1.5862409832432499e-06 -283.05670480697245 8.5614154654578556e-11 7.3965000790821023e-11 3.8752543662923244e-07 -0.00064643738732559828 -2.4332266256856210e-12 -1.3670555635196179e-12 -3.4321579373339789e-13 -0.00064631383253214330 -24.261860196399997 -200.43215969199997 73.726546483199982 142.71380061529433 0.0000000000000000 0.0000000000000000 0.0000000000000000 0.0000000000000000 3.0741736200308547 3.1496016977742416 1.0754341349618652 1.0369870086602173 770.46988533597585 770.46972472385096 1.0370314642851304 
-24.370304157870311 -188.13432189785880 72.021603568524455 -24.370304157870315 -188.13432189785883 72.021603568524469 -275.21190237814039 8.4543233652052560e-06 -1.0729285057293916e-05 -3.1842837098677677e-06 -277.50981900359318 8.5358414780856151e-11 6.6013361443850727e-11 3.8275539271381820e-07 -0.00064403461044117995 7.5479635000944320e-13 -3.6311982588482564e-12 -1.1496050595415915e-12 -0.00064231563041212438 -24.157397762799999 -187.63907770800003 75.309882232799993 165.73632395326644 0.0000000000000000 0.0000000000000000 0.0000000000000000 0.0000000000000000 3.0741433791179431 3.1495346595185354 1.0753972626327302 1.0369870086602173 760.58947202619595 760.58840569264601 1.0370134720154272 
-35.164326685456061 -195.94275800222547 78.471114886263720 -35.164326685456061 -195.94275800222559 78.471114886263734 -271.11705419275802 4.4987798636483109e-06 -7.9926725156663236e-06 -1.6701491364520437e-05 0.0000000000000000 1.1177300751619157e-10 7.0832617549143593e-11 3.6381545243102670e-07 -0.00064808250241632157 -6.1295751888971192e-12 -4.7734552414050734e-12 6.3398670695707971e-13 0.0000000000000000 -34.885542273181727 -195.41132893576267 81.596679120775832 139.46796289390394 0.0000000000000000 0.0000000000000000 0.0000000000000000 0.0000000000000000 3.0736246281933535 3.1484904778193239 1.0748718773834964 1.0365151681733553 751.55796067501171 751.55969627682589 1.0367601003749127 
-19.002748118414015 -195.05702451294590 78.282635629331708 -19.002748118414008 -195.05702451294590 78.282635629331708 -278.63946690512972 4.3369934399664847e-06 -4.9902889946050128e-06 -7.9617989371942192e-06 0.0000000000000000 7.2222949842881690e-11 7.0311922950594408e-11 3.6436894923497226e-07 -0.00064572284760615979 -1.3655411750952674e-13 -5.5110276943836546e-13 6.7879307994303205e-13 0.0000000000000000 -18.822600960987238 -194.52970000168264 81.412954998504986 111.95285379220412 0.0000000000000000 0.0000000000000000 0.0000000000000000 0.0000000000000000 3.0742374869565041 3.1497272569785602 1.0754958051982593 1.0369870086602186 769.59202282677859 769.59223053104154 1.0370612695135006 
-22.867717893082609 -103.31007162531091 39.120338351855018 -22.867717893082609 -103.31007162531091 39.120338351855018 -244.89845396451165 -9.9826522196524607e-06 1.0878065842425562e-05 -1.4967044899053338e-05 -248.21813994433563 8.1681189589843939e-11 1.3613443705651207e-11 4.7937484648485906e-07 -0.00080851511949211878 -1.7373547222332590e-11 2.6105640213354642e-11 -3.2045084968398070e-11 -0.00081117220758951500 -22.663982073999996 -103.20790935200000 43.238681550399988 69.202643319072678 0.0000000000000000 0.0000000000000000 0.0000000000000000 0.0000000000000000 3.0740523011230891 3.1493541873282953 1.0753079107894565 1.0369870086602195 708.06592813512259 708.06564314264028 1.0369706282414262 
-30.401375884299561 -110.91049012478419 42.967471954164012 -30.401375884299565 -110.91049012478423 42.967471954164012 -236.61291705509532 1.8854005897162230e-06 1.7104297358222238e-05 -2.1068694012909355e-05 -234.10182839771792 1.0011586004665673e-10 1.8312851235435798e-11 4.6807716991281728e-07 -0.00079179852031346107 -1.0177594510463927e-11 4.3534906807968760e-11 -4.0308436729679796e-11 -0.00078590402695532895 -30.151660686400003 -110.77310694400001 46.988755992800002 74.715282964229786 0.0000000000000000 0.0000000000000000 0.0000000000000000 0.0000000000000000 3.0742324876193443 3.1497158481722773 1.0754893750097660 1.0369870086602198 692.20155996849496 692.20144029274252 1.0370582534923294 
-18.914760465682576 -103.67088261842434 46.065289975521651 -18.914760465682576 -103.67088261842434 46.065289975521644 -230.52496057137986 -1.2101795941287800e-05 8.3014315156286110e-06 -2.2519965803791606e-05 -231.12042026806830 7.2008496387887533e-11 1.3846646051973721e-11 4.5897996514554512e-07 -0.00077913379258347671 -2.6169974916144579e-11 3.3427970439930999e-11 -4.2347745890901849e-11 -0.00077862028620759467 -18.735150314000002 -103.56704831999998 50.008419303199993 79.719497061372692 0.0000000000000000 0.0000000000000000 0.0000000000000000 0.0000000000000000 3.0740601199298472 3.1493691340219239 1.0753150299231164 1.0369870086602193 682.24007398061474 682.23976388586595 1.0369739752140077 
-25.712980240290126 -98.567775302032274 47.064312938107520 -25.712980240290115 -98.567775302032274 47.064312938107520 -234.17380024417278 1.2767421205941198e-06 3.3386660912167704e-06 -3.5890589705655384e-05 0.0000000000000000 8.8644508400292921e-11 1.0687117857344218e-11 4.5604618570394001e-07 -0.00080109407071732937 -1.4436470703725554e-11 2.5593796995188727e-11 -4.3187713819794277e-11 0.0000000000000000 -25.491879232152165 -98.487589184379729 50.982237960580505 72.292163684038698 0.0000000000000000 0.0000000000000000 0.0000000000000000 0.0000000000000000 3.0740809250115051 3.1494158725306667 1.0753410202885094 1.0369870086602189 688.03983571251831 688.04057381232587 1.0369864110946478 
-25.527748979591102 -104.32670719572401 106.32691951745964 -25.527748979591106 -104.32670719572401 106.32691951745969 -29.275656147811155 6.1104634019302267e-06 2.2296358878251032e-05 2.3960496009140031e-06 0.0000000000000000 -1.3974234598880474e-08 2.7943888943160463e-08 1.3522757030851016e-08 -0.00051875221744770506 4.8309160663191046e-10 8.4357756948161222e-11 -1.0472895754399245e-09 0.0000000000000000 -25.283559732051039 -104.23282252886388 108.75695162467670 96.378087069502698 0.0000000000000000 0.0000000000000000 0.0000000000000000 0.0000000000000000 3.0803475572034711 3.1622141629179752 1.0818733026445211 1.0408725360083788 349.14497489865408 349.14503838703791 1.0401281154190583 
-26.164580163159055 -118.16928949821941 108.27369709689955 -26.164580163159037 -118.16928949821934 108.27369709689950 -17.156897223243387 5.3180111406058394e-06 -1.5361891985205596e-06 -5.1268827193739249e-06 0.0000000000000000 1.9393897958318960e-08 -6.7340817378318232e-08 -1.2360332926042851e-07 -0.00054814298798389527 3.5398729928125439e-10 -3.4009104732950538e-10 -7.4963197914449554e-10 0.0000000000000000 -25.913646985361510 -118.01095136745833 110.66456878241424 88.846747377876298 0.0000000000000000 0.0000000000000000 0.0000000000000000 0.0000000000000000 3.0899580111662130 3.1818765624040246 1.0919299504356377 1.0434590231916874 365.28065515186728 365.28015700064014 1.0449582169679135 
-36.581942361653248 -112.82246591743404 109.68647778615998 -36.581942361653240 -112.82246591743400 109.68647778616004 -18.320551527652196 -9.3468237050316696e-06 3.4020328914552207e-06 1.9980754974753002e-06 0.0000000000000000 -1.7488005328251952e-07 4.4489268011002371e-08 -2.2769944427888271e-07 -0.00036388049737171360 -2.6493148818565817e-10 -1.2187051400522053e-10 8.4453654518538167e-11 0.0000000000000000 -36.236867317722961 -112.72601430119678 112.03758904139967 95.996160021407249 0.0000000000000000 0.0000000000000000 0.0000000000000000 0.0000000000000000 3.0897740207927358 3.1815216543492828 1.0917598147753795 1.0442956000586801 368.27559996118958 368.27462770116466 1.0448730562187798 
-33.688868820177937 -105.15523936379262 103.09293485944197 -33.688868820177952 -105.15523936379260 103.09293485944194 -26.988490674094752 -2.3933985501404028e-06 2.3464331316205978e-05 3.9857411998834451e-06 0.0000000000000000 -9.7034390295608694e-08 1.9819561696465225e-07 -2.1760719060761683e-07 -0.00053569966842585519 2.8087300869709226e-10 1.8273817393441140e-10 -5.3877397195796856e-10 0.0000000000000000 -33.380789828628046 -105.09637623893835 105.63342596379557 85.433794965156210 0.0000000000000000 0.0000000000000000 0.0000000000000000 0.0000000000000000 3.0880528992713985 3.1778983742304523 1.0898547880600118 1.0428822205596717 364.95169292609518 364.95178963282410 1.0439608404017315 
-112.97308873648296 -161.03313486729039 122.65337915045644 -112.97308873648296 -161.03313486729036 122.65337915045644 -119.82626156282397 2.1455848432394397e-06 -6.5438427194015118e-06 -1.3712612966534198e-05 -119.02542414357316 3.0215771551489468e-10 4.9288739756292450e-11 2.3406766658240488e-07 -0.00061019269622795893 4.6198000876466499e-12 -1.1694259070895374e-11 -5.5949711263730989e-11 -0.00060307496874351888 -112.21942232800005 -160.66347960400000 124.66427103520003 147.55923210393107 0.0000000000000000 0.0000000000000000 0.0000000000000000 0.0000000000000000 3.0766927009869742 3.1548298303248887 1.0781450338979235 1.0369870086602184 498.80828601218667 498.61380760865205 1.0383425929474455 
-100.20837837159419 -158.45238483415065 114.36483805370597 -100.20837837159421 -158.45238483415059 114.36483805370605 -127.21535159043141 -1.0447130842488613e-05 -1.0199785955272988e-05 -2.6448419235158594e-05 0.0000000000000000 2.7092614263146686e-10 4.7687576110178049e-11 2.5840819439792995e-07 -0.00066118746754118625 1.2734641443883794e-11 5.1414364265914255e-11 -5.4358106895832195e-11 0.0000000000000000 -99.532617471171264 -158.09468895943013 116.58484116745363 117.70414803503969 0.0000000000000000 0.0000000000000000 0.0000000000000000 0.0000000000000000 3.0677675978879795 3.1361013152247827 1.0683317266192878 1.0342682545308970 479.35943957731263 479.59415651461137 1.0335969571723416 
-105.04785974850287 -149.16965884116578 118.78322892111788 -105.04785974850287 -149.16965884116587 118.78322892111784 -112.82223716035028 -8.8874915919822276e-06 -1.2838060351826819e-05 -1.0413750910050588e-05 0.0000000000000000 2.8276556096606953e-10 4.1946945916748746e-11 2.4543294152579165e-07 -0.00062645810924979322 6.9651756401326739e-11 -3.1709785227240975e-11 -6.6594884193886238e-11 0.0000000000000000 -104.34256255272837 -148.85497981259945 120.89176065121424 119.29379793442074 0.0000000000000000 0.0000000000000000 0.0000000000000000 0.0000000000000000 3.0681961011235561 3.1371811416550490 1.0689869566496026 1.0346481064420112 456.05734602127984 456.02961560747156 1.0339129548587531 
-101.21229771001904 -162.66025015492662 122.55442709210317 -101.21229771001903 -162.66025015492656 122.55442709210318 -118.63553664138603 -4.8756351595105149e-06 -1.5956378010660016e-05 -1.3431458975644487e-05 0.0000000000000000 2.7338240005114756e-10 5.0278614605048239e-11 2.3435825369233498e-07 -0.00062340912385804102 3.4164180596181978e-11 -9.1268176463749261e-12 -5.2025085662986444e-11 0.0000000000000000 -100.53040969477119 -162.28305471776312 124.56781543385799 141.51484144144280 0.0000000000000000 0.0000000000000000 0.0000000000000000 0.0000000000000000 3.0691166529297216 3.1391871834158378 1.0700736986308419 1.0347400046807920 469.26915263005543 469.32427372720889 1.0344403412773671 
-78.946523240111205 -149.11184912200645 86.525877935488751 -78.946523240111205 -149.11184912200639 86.525877935488765 -139.08524380998784 -2.9435881375854918e-05 -2.1767195972427390e-05 -9.9782443411183189e-06 -139.73320895465480 2.1890536605617681e-10 4.1922854077114386e-11 3.4016144123683034e-07 -0.00072432590238186807 3.5711731924594910e-11 1.0817422118166054e-11 6.2126506959047742e-13 -0.00074552997898045170 -78.400527573600002 -148.79743798799998 89.448228916799977 108.06316173413846 0.0000000000000000 0.0000000000000000 0.0000000000000000 0.0000000000000000 3.0772245315758040 3.1557730418676120 1.0785553422467125 1.0369870086602195 536.48592041987933 536.61509997386190 1.0385420115011856 
-80.706097981917480 -162.91301106612036 84.807300832983771 -80.706097981917509 -162.91301106612036 84.807300832983771 -189.48432845691548 -1.6470204825170811e-05 -3.8240047906915468e-05 -1.8980987197390963e-05 -190.77827250711732 2.2319782133628510e-10 5.0441595345063206e-11 3.4520829927942032e-07 -0.00069470485666641270 4.0273066350530857e-11 2.3349339265241669e-11 2.3379915291210379e-11 -0.00069957231136481997 -80.149363288800018 -162.53464431600008 87.773009718400019 109.57810873427631 0.0000000000000000 0.0000000000000000 0.0000000000000000 0.0000000000000000 3.0775134185598367 3.1563276035830601 1.0788204194223854 1.0369870086602204 624.29438794588100 624.19792650008469 1.0386719763638121 
-84.877673240441183 -160.55185836869694 92.193841028394232 -84.877673240441212 -160.55185836869705 92.193841028394232 -165.68636106980145 -1.0857228973776898e-05 -2.5841094928779835e-05 -3.7283513518979972e-05 0.0000000000000000 2.3341881205674042e-10 4.8988091361223957e-11 3.2351662859753105e-07 -0.00070404908432506212 -1.2472885827566314e-11 -3.1739047340352239e-12 -1.3161124203197212e-11 0.0000000000000000 -84.295478612813938 -160.18443337667750 94.973195224810283 106.11323630727971 0.0000000000000000 0.0000000000000000 0.0000000000000000 0.0000000000000000 3.0658630686495956 3.1328722043132884 1.0670147114880093 1.0337450825647359 536.52264515452578 536.41867462606706 1.0329517589779018 
-87.069582961432317 -151.71663100392547 89.794600352319293 -87.069582961432332 -151.71663100392553 89.794600352319307 -155.44927526952509 -1.2862028553043054e-05 -3.3451219293060485e-05 -3.5967926790755688e-05 0.0000000000000000 2.3877685939588389e-10 4.3522907500204155e-11 3.3056234904904613e-07 -0.00074639280227609952 -6.6767010005665229e-11 7.4578146048827029e-11 -4.2988707041430906e-12 0.0000000000000000 -86.474010682800568 -151.39014911596544 92.634484883397832 94.367740677547317 0.0000000000000000 0.0000000000000000 0.0000000000000000 0.0000000000000000 3.0701244592342931 3.1414800355924277 1.0713618936181240 1.0345728243556016 532.80801046594149 532.82378151801288 1.0350656457664547 
-26.242992304770418 -132.66910936082496 136.99557118230814 -26.242992304770421 -132.66910936082493 136.99557118230814 -53.804712923686516 8.0654662403300316e-06 -7.2246081319067668e-06 3.2143843319923985e-05 -59.160512593273445 8.9940666025967175e-11 3.1761981933442485e-11 1.9194968636782050e-07 -0.00048815136133596124 -3.5057194500687044e-11 8.9796501603728829e-12 1.2744147224213802e-10 -0.00047459332276570716 -26.018656529999991 -132.43089511199997 138.64462455200004 49.421240865332216 0.0000000000000000 0.0000000000000000 0.0000000000000000 0.0000000000000000 3.0736285088663586 3.1484589134726897 1.0748361836068021 1.0378211195690903 373.54565600396842 373.54565865998563 1.0367447714345170 
-32.759554534894292 -134.20213170898285 135.92693624780716 -32.759554534894285 -134.20213170898293 135.92693624780716 -48.717082366390692 -1.9236597369217462e-07 6.3149204863492201e-06 1.3406923427283063e-05 -26.604194390893365 1.0588876997452701e-10 3.2689462248214340e-11 1.9508789339539589e-07 -0.00053410626717959541 -7.2632064888492159e-11 -1.1427458224045288e-10 9.0270618989130188e-12 -0.00028719858089610266 -32.495446914399992 -133.95681332000001 137.60295016000006 48.530522504776933 0.0000000000000000 0.0000000000000000 0.0000000000000000 0.0000000000000000 3.0811923937486037 3.1640325922443049 1.0828494077695403 1.0404237197675963 392.33973527004974 392.33973078947207 1.0405984511621822 
-28.657274464383882 -136.69565065015183 138.70407494661873 -28.657274464383878 -136.69565065015189 138.70407494661870 -53.050441457129530 8.5572909479521401e-06 8.7862017300255507e-06 1.0080031619162675e-05 -57.280027224994257 9.5847718650787770e-11 3.4247327196368354e-11 1.8693241177203393e-07 -0.00056147437378962757 1.3107665094873000e-11 -1.2577687410631380e-10 -6.4564276450123883e-11 -0.00057831187163927039 -28.418203856399998 -136.43877710800004 140.31002455199999 44.353383947079159 0.0000000000000000 0.0000000000000000 0.0000000000000000 0.0000000000000000 3.0747057193898093 3.1506441903466391 1.0759441214259620 1.0384624730970611 376.39514975413852 376.39512191573436 1.0372772882326409 
-26.997304982955480 -129.72631424088286 142.33396304418440 -26.997304982955480 -129.72631424088286 142.33396304418434 -60.534375471261939 5.6680516427644715e-06 6.8171676971907245e-06 4.8347454525757509e-06 0.0000000000000000 9.1787299982826198e-11 2.9942215373779391e-11 1.7627272264064684e-07 -0.00051024722091358627 -3.2590180522186785e-11 -3.5531847900763613e-11 1.9958756155942859e-11 0.0000000000000000 -26.768365491316434 -129.50173712462359 143.84833436668455 49.139845408488213 0.0000000000000000 0.0000000000000000 0.0000000000000000 0.0000000000000000 3.0760844406883674 3.1535859291087096 1.0775089736947632 1.0385844624268541 397.64350564223156 397.64350629413735 1.0380304945992191 
-40.379374789549843 -65.402567059489968 152.70054782475469 -40.379374789549843 -65.402567059489940 152.70054782475469 -102.36905361321962 -3.1411772647685996e-06 -1.4003919857980088e-06 9.3812512531333369e-06 -103.69236910392448 1.2453163500403264e-10 -9.8013819282982695e-12 1.4582969853904615e-07 -0.00052530152914614069 2.2436650355850892e-12 -8.6308319426369671e-12 2.2620741370789503e-11 -0.00052448571053206688 -40.068761925200000 -65.476070995999990 153.95338104800004 156.95717166164070 0.0000000000000000 0.0000000000000000 0.0000000000000000 0.0000000000000000 3.0735186132890586 3.1482906729840687 1.0747783596582534 1.0365374255806734 457.35277919645523 457.45174843517901 1.0367154797971492 
-52.813257170530683 -59.555175081157977 147.88960624490772 -52.813257170530697 -59.555175081157962 147.88960624490775 -104.17587389666018 -5.5259922205204749e-06 -8.2672154326119856e-07 5.6711652075362986e-06 -104.96171964266181 1.5495552063704565e-10 -1.3408663068759097e-11 1.5995774127475218e-07 -0.00052082702362326379 -6.9880941649898479e-12 1.8885435297575721e-12 -1.5370904652085758e-13 -0.00051945456435141351 -52.426757905599978 -59.655776269200025 149.26381449600007 118.05125250056595 0.0000000000000000 0.0000000000000000 0.0000000000000000 0.0000000000000000 3.0747269164816546 3.1507618015561936 1.0760415129445957 1.0365708568072292 464.95175950420344 465.08338996556910 1.0373248049804875 
-35.453466350240120 -65.958844060294552 143.51501652646573 -35.453466350240106 -65.958844060294524 143.51501652646579 -97.454381156673605 -2.0568302415233476e-07 -2.4262311532242472e-08 -3.2668037870934844e-07 -97.230106993657259 1.1247774933664800e-10 -9.4513841197851889e-12 1.7280436814814948e-07 -0.00051392150356800216 -3.6998191149777058e-12 2.4856914888445220e-12 -1.2363332051550379e-12 -0.00051037063875161986 -35.172917262399999 -66.029770167599992 144.99959110400002 155.12084301790807 0.0000000000000000 0.0000000000000000 0.0000000000000000 0.0000000000000000 3.0742607360976453 3.1497598557803785 1.0755050488670521 1.0368725570793795 451.87121826079061 451.83871035032672 1.0370656596070467 
-50.786960628105618 -66.521810911597115 140.64652702882424 -50.786960628105597 -66.521810911597129 140.64652702882418 -100.03615728696271 -4.9363904075287954e-06 3.5508418614191505e-06 3.1007057613758572e-06 0.0000000000000000 1.4999687603101108e-10 -9.1021079562381146e-12 1.8122812672771715e-07 -0.00051919376401054476 -2.9056797557549238e-12 2.6269243717090531e-13 -7.9649576352305487e-13 0.0000000000000000 -50.412828244765279 -66.590128188430739 142.20347059834828 136.07757377940416 0.0000000000000000 0.0000000000000000 0.0000000000000000 0.0000000000000000 3.0707833973273089 3.1425836417477426 1.0718036765842467 1.0357206259186866 443.13673728498924 443.13360216955721 1.0352786582272460 
-95.204942800762907 -159.07734313018122 74.398556013614041 -95.204942800762879 -159.07734313018119 74.398556013614069 -234.24086216287893 -8.4143112228531844e-06 -1.1233677248459701e-05 -1.6490278923507263e-05 -234.06132571223952 2.5867860631301198e-10 4.8064607849340739e-11 3.7577512301822935e-07 -0.00072699351615613335 -4.2620107359082362e-11 4.5183327487325135e-11 -2.1790409391528892e-11 -0.00071430338975685766 -94.559718839999974 -158.71675115199997 77.626866652000004 109.98746742214213 0.0000000000000000 0.0000000000000000 0.0000000000000000 0.0000000000000000 3.0739129453409579 3.1490733890737839 1.0751664859168868 1.0369870086602191 688.49764495337331 688.49862301173755 1.0369020412036174 
-90.297411821463115 -158.82583165118658 79.334573737038639 -90.297411821463115 -158.82583165118655 79.334573737038653 -212.25198305163718 -2.7036214797996789e-05 -2.5766741776992115e-05 -3.1246792332846122e-05 -204.67407110984047 2.4667010101175890e-10 4.7921833168373951e-11 3.6127976876798579e-07 -0.00070809623646721025 -3.3667529442575769e-11 6.7002488092240761e-11 -6.2557117263071097e-13 -0.00070370835039544968 -89.682139475999989 -158.46640519600001 82.438353807199988 112.88451412247700 0.0000000000000000 0.0000000000000000 0.0000000000000000 0.0000000000000000 3.0744438383312702 3.1501090137134686 1.0756708732600837 1.0369870086602202 649.22019956751853 649.21590716523156 1.0371447544226464 
-103.40513794105327 -155.28706619620419 83.613149955874519 -103.40513794105331 -155.28706619620422 83.613149955874590 -207.66896873671396 -5.4277153217912073e-06 -5.4495588188746841e-06 -3.8486023723666237e-05 0.0000000000000000 2.7874122454640831e-10 4.5724368735733372e-11 3.4871510123934973e-07 -0.00075344368032503417 -3.6933223126589066e-11 5.1504269961140650e-11 -3.6885234150808684e-11 0.0000000000000000 -102.70986659571734 -154.94403864466588 86.608986019839278 111.02505284862640 0.0000000000000000 0.0000000000000000 0.0000000000000000 0.0000000000000000 3.0746991411879767 3.1506769447976484 1.0759839613596187 1.0364175049585935 647.41625318959279 647.41750842777412 1.0372984565392818 
-101.08819527075782 -167.57387883868947 80.598174400747524 -101.08819527075778 -167.57387883868947 80.598174400747510 -225.22316940800900 -2.5710871249344083e-06 -7.4734888604462851e-06 -3.6775522586485681e-05 0.0000000000000000 2.7308275085680123e-10 5.3314852532793111e-11 3.5756902150296810e-07 -0.00070428807432231053 -3.2060686537158022e-11 2.2119941069593844e-11 -1.2930647374614134e-11 0.0000000000000000 -100.40706467681501 -167.17391327890167 83.670075146830683 105.53983917324770 0.0000000000000000 0.0000000000000000 0.0000000000000000 0.0000000000000000 3.0739856208498808 3.1492207589281560 1.0752411486200162 1.0365247200205259 670.93261345164012 670.92793312009462 1.0369386485099303 
-115.39249475761908 -99.892174912448780 93.834296649974831 -115.39249475761905 -99.892174912448795 93.834296649974846 -156.78750002164441 -6.0779382098564417e-06 -8.2057524202922332e-06 -2.6520877186053490e-05 -159.92292191003347 3.0807875707233468e-10 1.1502132579721547e-11 3.1869918792892804e-07 -0.00088448774187263265 -1.9985521606491587e-11 -1.8161604273352322e-11 -1.0502741125691856e-10 -0.00088574743591081655 -114.62406224400000 -99.805851428000011 96.572263865600007 85.211636250682801 0.0000000000000000 0.0000000000000000 0.0000000000000000 0.0000000000000000 3.0747526305407997 3.1507487728204278 1.0760004073848124 1.0350860228239389 556.00158028662088 556.00113361740773 1.0373013400642606 
-111.83427814210822 -91.143423088107838 97.577744575835354 -111.83427814210820 -91.143423088107824 97.577744575835354 -143.21804845163396 -2.5471585177890516e-06 4.3820965576152900e-08 -2.9100625383098354e-05 -141.61288721975328 2.9936661483098698e-10 6.0995652972906108e-12 3.0770599490637096e-07 -0.00084867219818414387 1.9756259217333226e-12 3.4466735581102530e-11 -1.2133080861925249e-10 -0.00082454040891862793 -111.08756211600000 -91.097641973600034 100.22126851279998 99.535403830130534 0.0000000000000000 0.0000000000000000 0.0000000000000000 0.0000000000000000 3.0775859118296771 3.1565353005760719 1.0789566034916303 1.0362809463067582 542.69577285150615 542.69577209363240 1.0387314153971781 
-113.66222036473654 -97.732118509609435 105.95462737444598 -113.66222036473658 -97.732118509609407 105.95462737444595 -123.33819953446553 -3.0988517869439042e-06 -2.2467365664827697e-06 -2.8218654246890828e-05 -123.25952113222503 3.0383937033029445e-10 1.0176137710260491e-11 2.8310603816805724e-07 -0.00076866361464944077 -2.9892710426910448e-11 -6.0135688787740981e-11 -1.1948261453772394e-10 -0.00076296644828619312 -112.90434805199999 -97.655804887999992 108.38681131359999 128.09762094244454 0.0000000000000000 0.0000000000000000 0.0000000000000000 0.0000000000000000 3.0747092993728695 3.1507712731105149 1.0760689472672618 1.0364163721857558 499.88816006089132 499.88967714748827 1.0373364053315712 
-107.87723170235405 -103.94631196584325 97.915153548692331 -107.87723170235405 -103.94631196584319 97.915153548692302 -140.13121716603925 -2.7124818580784509e-05 -3.2826072051759469e-06 -3.1057869861986584e-05 0.0000000000000000 2.8969057708216899e-10 1.4013012972213801e-11 3.0671514750224560e-07 -0.00087004324259575049 2.7929610801728031e-11 -5.1965538323038049e-11 -8.6299705312468271e-11 0.0000000000000000 -107.15466629968294 -103.84120130723400 100.55016500991876 102.24201981555134 0.0000000000000000 0.0000000000000000 0.0000000000000000 0.0000000000000000 3.0683351542006538 3.1373865786159318 1.0690521720901567 1.0338327758615560 502.18111486964023 502.18124271521816 1.0339456863157717 
-27.131426516134400 -115.52011681134441 100.77036928995967 -27.131426516134407 -115.52011681134444 100.77036928995965 -24.503382801632508 1.4982362103299265e-05 2.5235134046799159e-06 -1.9599328395183466e-05 0.0000000000000000 2.7146136832235087e-08 -3.2296470229875343e-08 -7.2517528356649373e-08 -0.00080442361374967388 1.5923086268547172e-10 -3.3015034943766380e-10 -6.8493925601387931e-10 0.0000000000000000 -26.889884864405381 -115.37486796036181 103.37575244326078 96.382960025775517 0.0000000000000000 0.0000000000000000 0.0000000000000000 0.0000000000000000 3.0858764099644085 3.1735352699875921 1.0876686767861932 1.0426453963678286 359.23489710646032 359.23478713494353 1.0429129492790350 
-110.30572111350176 -103.72586244304149 150.89916979581614 -110.30572111350172 -103.72586244304149 150.89916979581614 -103.47555426094114 2.3206599034142789e-07 7.5340368924524907e-07 2.4830736986025668e-07 -104.01007497705201 2.9562605141641995e-10 1.3877954341268149e-11 1.5111970519399168e-07 -0.00050615211833324734 -6.4456991835532055e-13 -3.7683002752954955e-12 3.4942579623996984e-12 -0.00050150729636077869 -109.56833416800004 -103.62177336400003 152.19744990400002 70.302883591683823 0.0000000000000000 0.0000000000000000 0.0000000000000000 0.0000000000000000 3.0727161383597883 3.1465745087181940 1.0738633878776176 1.0363492672085037 456.35324606837918 458.46034749518827 1.0362741805669808 