# For a description of the Tecplot format see the Tecplot User's guide.
#
Variables=x,y,z,s_u,s_v,s_w,s_p,mono_f_vel_u,mono_f_vel_v,mono_f_vel_w,const,u_nu,v_nu,w_nu,p_nu,x_nu,y_nu,z_nu,const,u_ref,v_ref,w_ref,vol_ref,x_ref,y_ref,z_ref,const,I1,I2,I3,J,p1,p2,p3
Zone f=fepoint, n=3174, e=16683, et=brick, c=black
-25.2496 -154.700 108.486 -25.249556400459941 -154.70031945637416 108.48601278802654 -230.50712286395412 -2.0176371138242207e-05 -8.1200507952790244e-05 -8.5263076905714558e-05 -221.80111714858398 6.3444093326148199e-08 4.3320220410869581e-08 4.8312941210326699e-05 0.013009029798312085 4.6571521894363858e-10 1.4121383210699678e-09 8.9622808564936963e-10 0.012935105514135070 -24.903554063199991 -154.16086777200002 112.24023381839994 89.724962256112903 0.0000000000000000 0.0000000000000000 0.0000000000000000 0.0000000000000000 3.1239177525705291 3.2504010056192296 1.1264658880353866 1.0629891234954614 645.25927470899899 645.04905075279692 1.0613122987502828 
-37.945026861187358 -155.91014390131804 111.20338691015598 -37.945026861187344 -155.91014390131801 111.20338691015603 -193.57486312881366 6.5479537877986076e-05 -6.7421666500828951e-05 -4.3259111489886693e-05 0.0000000000000000 4.0624941447157884e-07 1.2326872548674322e-05 4.9320322841431955e-05 0.012749629261145137 -8.1110859877623951e-10 7.0338247985752733e-10 5.2924818537946413e-10 0.0000000000000000 -37.438273663334591 -155.10473791080037 114.93291110338620 89.036758072416930 0.0000000000000000 0.0000000000000000 0.0000000000000000 0.0000000000000000 3.1684443334341941 3.3446652037373110 1.1763079479364895 1.0800397291384241 670.26644055689724 670.29557834333912 1.0846281452177384 
-31.953480277028032 -148.37203813735206 116.42461525664807 -31.953480277028014 -148.37203813735198 116.42461525664804 -168.37741750424280 2.0636117075801013e-05 -4.8151951090839942e-05 -1.5165855012333757e-05 0.0000000000000000 7.5336728064256953e-08 3.9587143230157551e-08 4.4227241364325209e-05 0.012479963970850392 -3.3710912963861109e-10 8.8819916545544037e-10 -8.2986645241508238e-11 0.0000000000000000 -31.542619574254449 -147.87907313389167 119.86135157363466 98.260374494724786 0.0000000000000000 0.0000000000000000 0.0000000000000000 0.0000000000000000 3.1413143513743953 3.2875194818709459 1.1462330314256801 1.0724509548132031 588.51620782429393 588.53697899924941 1.0705635578282366 
-29.030234997206009 -143.42399897655412 108.36547947799269 -29.030234997205987 -143.42399897655420 108.36547947799271 -167.02554480252562 2.3413208622474233e-05 -6.2024039087185516e-05 -3.9966868881178388e-05 0.0000000000000000 7.0150947370506422e-08 3.6668277192397625e-08 4.8374975166964873e-05 0.012524925497901709 -2.8590239150007305e-11 1.3568538365152261e-09 7.5336757271670214e-10 0.0000000000000000 -28.647655777685479 -142.96738158566356 112.12452093910819 112.69127588814607 0.0000000000000000 0.0000000000000000 0.0000000000000000 0.0000000000000000 3.1483441752597181 3.3025571197750550 1.1542755633930295 1.0728031933118958 594.67203160170709 594.66903980961615 1.0743729275432197 
-24.601593697286592 -201.31402925325037 68.367901091755840 -24.601593697286596 -201.31402925325034 68.367901091755826 -633.05676279723968 3.4943180805271189e-06 2.6126210765036277e-07 2.3205724401425800e-06 -636.17670325557276 6.2294619088132386e-08 7.0817808395240434e-08 6.8960223089220563e-05 0.017991607187810153 2.6236365388445382e-11 -3.6341476292006343e-11 -4.2757577043817612e-11 0.017995040872817652 -24.261860196399997 -200.43215969199997 73.726546483199982 142.71380061529433 0.0000000000000000 0.0000000000000000 0.0000000000000000 0.0000000000000000 3.1196892878693778 3.2426163221391167 1.1229519844891624 1.0596185329964376 1351.9801338280829 1355.1147117701148 1.0596944926070873 
-24.496110749174484 -188.42627561021743 70.017196312499266 -24.496110749174481 -188.42627561021746 70.017196312499252 -622.98436872631862 1.3301040826288534e-05 -1.8144042021788228e-05 -5.6509380564649935e-06 -626.54522500557573 6.2107495188423734e-08 6.3215258472304470e-08 6.8111392923952976e-05 0.017875654143357358 -1.8621813410485132e-10 3.0461469551438001e-10 1.9589140312446623e-10 0.017946274716149156 -24.157397762799999 -187.63907770800003 75.309882232799993 165.73632395326644 0.0000000000000000 0.0000000000000000 0.0000000000000000 0.0000000000000000 3.1197007997322932 3.2426174516815260 1.1229411172107857 1.0596185329964378 1335.1617586091547 1338.7642874773569 1.0596883282742213 
-35.329060659770860 -196.25604322997015 76.565892041590615 -35.329060659770875 -196.25604322997035 76.565892041590644 -617.37385725889192 5.8255108048572458e-06 -1.4161505695244753e-05 -2.8314929938429827e-05 0.0000000000000000 8.1324949149919070e-08 6.7834081352025066e-08 6.4741025756376303e-05 0.017916670734255173 -4.2475550660069567e-11 3.7394558028479383e-10 6.9757407101519911e-11 0.0000000000000000 -34.885542273181727 -195.41132893576267 81.596679120775832 139.46796289390394 0.0000000000000000 0.0000000000000000 0.0000000000000000 0.0000000000000000 3.1186294796788405 3.2404618819688271 1.1218573838582344 1.0585373289937774 1323.3580557641756 1325.4018850836362 1.0591769009973977 
-19.109197245043180 -195.36789004520966 76.374514238826208 -19.109197245043177 -195.36789004520963 76.374514238826166 -628.12281444647715 6.7312934162729133e-06 -8.9777271597846062e-06 -1.3249555801319417e-05 0.0000000000000000 5.2551208509776786e-08 6.7310149343136061e-08 6.4839520700132893e-05 0.017875689067591106 -1.0430535827893177e-10 2.6552667096576885e-10 5.8679006908752608e-11 0.0000000000000000 -18.822600960987238 -194.52970000168264 81.412954998504986 111.95285379220412 0.0000000000000000 0.0000000000000000 0.0000000000000000 0.0000000000000000 3.1199068779767756 3.2430463802988401 1.1231643558135671 1.0596185329964380 1349.3071243565216 1330.3547632033371 1.0597952911825395 
-22.988105582315157 -103.37029778357159 36.609955919962140 -22.988105582315157 -103.37029778357159 36.609955919962140 -611.58929234251389 -1.8784605169854250e-05 2.1753304174757678e-05 -2.9654057580904459e-05 -617.64546586195695 5.9432319107766154e-08 1.3040469371006226e-08 8.5304841958233624e-05 0.018609608945173786 1.0551874869885927e-10 -6.4317254024996416e-10 8.9313166358162210e-10 0.018842414616583373 -22.663982073999996 -103.20790935200000 43.238681550399988 69.202643319072678 0.0000000000000000 0.0000000000000000 0.0000000000000000 0.0000000000000000 3.1194538171897110 3.2421294048461493 1.1227003617045066 1.0596185329964363 1315.8524907759147 1315.8501114026274 1.0595761777379280 
-30.548932832197792 -110.99147952449228 40.516253025200150 -30.548932832197803 -110.99147952449228 40.516253025200157 -595.61734072355398 1.6226694945862845e-06 3.4267156583053248e-05 -4.0280849326493210e-05 -590.37647090741882 7.2845090057227489e-08 1.7536230689785267e-08 8.3294417892787451e-05 0.018258260384565166 4.5167905205189584e-10 -8.6997292762593619e-10 9.8031435096988192e-10 0.018350933727581762 -30.151660686400003 -110.77310694400001 46.988755992800002 74.715282964229786 0.0000000000000000 0.0000000000000000 0.0000000000000000 0.0000000000000000 3.1200366702304625 3.2433077757455133 1.1232959127961273 1.0596185329964374 1285.4128940204462 1285.4100150775139 1.0598583112275990 
-19.020892275106842 -103.73209446000858 43.661711129935753 -19.020892275106839 -103.73209446000858 43.661711129935746 -583.81156206074786 -2.2881198892903195e-05 1.7677351938167554e-05 -4.2850739528285104e-05 -584.90815538194715 5.2394556818158300e-08 1.3253889763475968e-08 8.1675569013839308e-05 0.018002193850278136 2.6532854772399833e-10 -7.4157758710965015e-10 9.1569773478848991e-10 0.018057716326445761 -18.735150314000002 -103.56704831999998 50.008419303199993 79.719497061372692 0.0000000000000000 0.0000000000000000 0.0000000000000000 0.0000000000000000 3.1195014129634289 3.2422239542910201 1.1227472909517024 1.0596185329964374 1266.1772141171421 1266.1776753301679 1.0595977026745607 
-25.843629036248402 -98.615046194266199 44.676097660331592 -25.843629036248405 -98.615046194266156 44.676097660331600 -592.14198486460634 8.6679288546027562e-07 8.0679891810617912e-06 -6.6346307636381760e-05 0.0000000000000000 6.4497966620336022e-08 1.0235326031171610e-08 8.1153502446085213e-05 0.018271793365489768 1.6969021915546711e-10 -4.4829752246328292e-10 9.4704703187848246e-10 0.0000000000000000 -25.491879232152165 -98.487589184379729 50.982237960580505 72.292163684038698 0.0000000000000000 0.0000000000000000 0.0000000000000000 0.0000000000000000 3.1194018737080280 3.2420377749992473 1.1226609149625055 1.0596185329964369 1279.0838714083113 1279.0857161682145 1.0595560857888815 
-25.719828692828528 -104.33027922270435 104.82819296869106 -25.719828692828518 -104.33027922270428 104.82819296869106 -162.08703595576375 1.9875849242544382e-05 6.6570583683357257e-05 -9.2030034230097579e-06 0.0000000000000000 9.8212709463030973e-07 -4.0497236975537362e-06 5.2750195978590576e-05 0.012416433057965982 -6.1780167650226576e-10 -1.6358349957001025e-09 1.3138556173212978e-09 0.0000000000000000 -25.283559732051039 -104.23282252886388 108.75695162467670 96.378087069502698 0.0000000000000000 0.0000000000000000 0.0000000000000000 0.0000000000000000 3.1423715920468855 3.2891094276337900 1.1467326992526090 1.0745427278682405 565.05793705385452 565.05715856003019 1.0707945280268054 
-26.370932154738433 -118.20815240627012 106.78898645512236 -26.370932154738426 -118.20815240627009 106.78898645512241 -118.27778264211010 2.9455506838050189e-05 4.3455089382972164e-06 -2.4331419255248941e-05 0.0000000000000000 1.5487757743357750e-06 -2.3186962692988415e-06 5.2244171220602038e-05 0.011837433834405236 -1.0851666487925043e-09 1.6653939587706260e-10 1.1836291847586766e-09 0.0000000000000000 -25.913646985361510 -118.01095136745833 110.66456878241424 88.846747377876298 0.0000000000000000 0.0000000000000000 0.0000000000000000 0.0000000000000000 3.1876002561531034 3.3839684513804582 1.1964613611811195 1.0876169494005579 575.70654916817296 575.70758525179190 1.0938920129488163 
-36.922562231390337 -112.72238826658942 108.25199572678140 -36.922562231390337 -112.72238826658942 108.25199572678140 -121.62352026005982 -2.1317262995157200e-05 3.7062251918612068e-05 2.3201411536316676e-05 0.0000000000000000 5.4808316479380757e-06 -7.6683859817853266e-06 5.1935631641096716e-05 0.011779822648242398 6.4398408622812321e-10 -1.1910287949757087e-09 -6.6831502048588679e-10 0.0000000000000000 -36.236867317722961 -112.72601430119678 112.03758904139967 95.996160021407249 0.0000000000000000 0.0000000000000000 0.0000000000000000 0.0000000000000000 3.1923099268202999 3.3939923961513156 1.2018000436696143 1.0924590501022218 591.67895092034576 591.67898499574233 1.0962754035173639 
-33.960713636272239 -105.03864356321617 101.47272320693311 -33.960713636272224 -105.03864356321624 101.47272320693311 -159.21054089092232 9.4678900798780529e-07 7.5758267755342206e-05 -1.3532034921467160e-05 0.0000000000000000 3.8547652697775670e-06 -9.8532806785632301e-06 6.0948220368220552e-05 0.012526508758965519 -3.9043564802210104e-10 -1.7860639633768253e-09 1.0330541849862057e-09 0.0000000000000000 -33.380789828628046 -105.09637623893835 105.63342596379557 85.433794965156210 0.0000000000000000 0.0000000000000000 0.0000000000000000 0.0000000000000000 3.1729496970068038 3.3525157906027903 1.1796011626058531 1.0823649642699005 600.21900683348042 600.21717305519223 1.0860839899993489 
-113.41843093393263 -161.25105206575628 121.42761737769315 -113.41843093393261 -161.25105206575628 121.42761737769318 -384.05536059161938 3.3963429753245857e-06 -1.0678865386837673e-05 -2.6457934519649566e-05 -382.72822190179016 2.1985404634328185e-07 4.7184511964282194e-08 4.1652384506818401e-05 0.013981521911395558 -6.4504952462671416e-11 2.0530619841875341e-10 2.6854542519913288e-10 0.013984071893519559 -112.21942232800005 -160.66347960400000 124.66427103520003 147.55923210393107 0.0000000000000000 0.0000000000000000 0.0000000000000000 0.0000000000000000 3.1286794904622925 3.2616904494919789 1.1330522779351173 1.0596185329964365 936.60682045316389 936.61017452914359 1.0645129905196746 
-100.60768613024923 -158.66325179767787 113.01161017860598 -100.60768613024918 -158.66325179767782 113.01161017860602 -396.16470315462942 -2.3862314377709879e-05 -1.8257645599811449e-05 -5.0331498973554847e-05 0.0000000000000000 1.9712801783977604e-07 4.5657951530664320e-08 4.5983786595371612e-05 0.014084018513317373 5.2656043485307387e-10 2.1866801278613299e-10 -9.5842058669710017e-12 0.0000000000000000 -99.532617471171264 -158.09468895943013 116.58484116745363 117.70414803503969 0.0000000000000000 0.0000000000000000 0.0000000000000000 0.0000000000000000 3.0976896147416864 3.1945104022835884 1.0967646931637345 1.0495136822423701 893.45829454911313 893.45791188904673 1.0472111468064582 
-105.46462053216786 -149.35516674307084 117.49794968208002 -105.46462053216784 -149.35516674307075 117.49794968208003 -372.51437647741818 -2.0368082542943406e-05 -2.0620494718374576e-05 -2.3080750626492630e-05 0.0000000000000000 2.0574413754637089e-07 4.0167102643984265e-08 4.3674836534890460e-05 0.013875693804850550 3.2208824366812740e-10 3.8621929649872114e-10 -4.1475897511070083e-11 0.0000000000000000 -104.34256255272837 -148.85497981259945 120.89176065121424 119.29379793442074 0.0000000000000000 0.0000000000000000 0.0000000000000000 0.0000000000000000 3.0987398998243361 3.1980694913613226 1.0993209571957638 1.0503610415654125 855.65646900174738 855.71113706090784 1.0484166313572485 
-101.61522598665047 -162.88261239646249 121.32714357588114 -101.61522598665046 -162.88261239646263 121.32714357588112 -379.43350538209882 -1.3106559093962061e-05 -2.8076356815636201e-05 -2.4111011351172589e-05 0.0000000000000000 1.9891537121619063e-07 4.8146970965667890e-08 4.1704094588368434e-05 0.013926902724148879 2.4908275976718420e-10 4.5110974137578141e-10 1.0839204714543633e-10 0.0000000000000000 -100.53040969477119 -162.28305471776312 124.56781543385799 141.51484144144280 0.0000000000000000 0.0000000000000000 0.0000000000000000 0.0000000000000000 3.1012186839968856 3.2039120560907053 1.1026905301947449 1.0510773217920952 872.39842371088605 872.38210940890065 1.0500444484301186 
-79.269152598651317 -149.29719909613991 84.744526015643757 -79.269152598651317 -149.29719909613988 84.744526015643743 -409.38847572093130 -5.9291078882976925e-05 -4.2338056508761592e-05 -2.0378197343935373e-05 -409.86281943778704 1.5927385625669199e-07 4.0132903778022921e-08 6.0531790728290951e-05 0.015215487793663395 1.0894911101496447e-09 1.2635834606995721e-09 6.2550984405598351e-10 0.015341900433760139 -78.400527573600002 -148.79743798799998 89.448228916799977 108.06316173413846 0.0000000000000000 0.0000000000000000 0.0000000000000000 0.0000000000000000 3.1277610440581438 3.2592443736522365 1.1315191367946116 1.0596185329964369 980.83813017480009 980.83811922975349 1.0637800760333429 
-81.035073041491202 -163.13606381382084 82.999519614874544 -81.035073041491188 -163.13606381382081 82.999519614874544 -502.67109368629008 -3.4339365355832378e-05 -6.9469287526523161e-05 -3.7782700814684149e-05 -505.85647758556411 1.6240657078891996e-07 4.8296479815412852e-08 6.1429879831820244e-05 0.016453354934599415 -1.9288174623300706e-10 1.6568206676271563e-09 8.4124835688102079e-10 0.016782869264773008 -80.149363288800018 -162.53464431600008 87.773009718400019 109.57810873427631 0.0000000000000000 0.0000000000000000 0.0000000000000000 0.0000000000000000 3.1288545436773796 3.2612273689300015 1.1324005011484743 1.0596185329964392 1145.5068879128155 1145.5068979615337 1.0642126388373827 
-85.221692599527088 -160.76846078954316 90.499654407629947 -85.221692599527117 -160.76846078954313 90.499654407629947 -460.02777446626300 -2.4546680764481782e-05 -4.7741915117606485e-05 -7.0314887533569158e-05 0.0000000000000000 1.6983354793331795e-07 4.6899833683333725e-08 5.7569842788041115e-05 0.015890879303208830 6.6467546213632521e-10 6.5284755782137632e-10 7.1666823571070610e-10 0.0000000000000000 -84.295478612813938 -160.18443337667750 94.973195224810283 106.11323630727971 0.0000000000000000 0.0000000000000000 0.0000000000000000 0.0000000000000000 3.0971978862710094 3.1967587341615813 1.0995726652716551 1.0505769735563601 1001.0428368955971 1001.0428729052835 1.0485105938082133 
-87.421507187217898 -151.90909686452437 88.063516785038459 -87.421507187217898 -151.90909686452429 88.063516785038459 -442.71307562553648 -2.8047610813085117e-05 -6.1974058140084272e-05 -6.7651579441293727e-05 0.0000000000000000 1.7373598108771929e-07 4.1673654194163134e-08 5.8823631110982433e-05 0.015544780071553826 4.3742823701189831e-10 1.1202742873114448e-09 3.8716927873391236e-10 0.0000000000000000 -86.474010682800568 -151.39014911596544 92.634484883397832 94.367740677547317 0.0000000000000000 0.0000000000000000 0.0000000000000000 0.0000000000000000 3.1087276189974120 3.2203991922479953 1.1116967229561749 1.0526565448112906 990.41671624197954 990.41665484031512 1.0543696674697289 
-26.375552527407816 -132.80954015376571 135.99037214741693 -26.375552527407816 -132.80954015376571 135.99037214741696 -226.00739547130030 2.0461157827396361e-05 -1.7554849219265636e-05 7.9986994226224139e-05 -239.00455527501012 6.5441588856240962e-08 3.0406758666501332e-08 3.4157482819097140e-05 0.013054354510928090 -2.6576995143162566e-11 3.2541872976330382e-11 -9.4509011842678003e-10 0.012942671175768914 -26.018656529999991 -132.43089511199997 138.64462455200004 49.421240865332216 0.0000000000000000 0.0000000000000000 0.0000000000000000 0.0000000000000000 3.1182559712905058 3.2395460687109616 1.1213162072986196 1.0634227591633658 640.48753020469837 640.48753133044204 1.0589551841948297 
-32.915615978989798 -134.34675049672433 134.90530311090311 -32.915615978989791 -134.34675049672433 134.90530311090316 -215.01772175301790 -1.9506780942423100e-06 1.3723737149535852e-05 4.4695704733028076e-05 -177.12673188044667 7.7043537480281366e-08 3.1313585835412994e-08 3.4715927021977677e-05 0.013073439767372495 2.6287228853522874e-10 1.2337069936513277e-11 -3.4806250884234988e-10 0.014452280973893467 -32.495446914399992 -133.95681332000001 137.60295016000006 48.530522504776933 0.0000000000000000 0.0000000000000000 0.0000000000000000 0.0000000000000000 3.1480367259973199 3.3015856400064378 1.1536010638865464 1.0738342996791761 681.41523525193577 681.41522271104247 1.0739994592694027 
-28.798541513978773 -136.84708137013530 137.72515029622082 -28.798541513978765 -136.84708137013533 137.72515029622082 -227.30107846670390 2.3850796749373624e-05 1.6738980675650544e-05 2.5296417933540446e-05 -239.02851311017272 6.9739927374690147e-08 3.2788526005411711e-08 3.3264657826492794e-05 0.013137443398150279 8.1004438341352515e-11 -5.2789217346111308e-10 -1.9638698593508515e-10 0.013022389752162328 -28.418203856399998 -136.43877710800004 140.31002455199999 44.353383947079159 0.0000000000000000 0.0000000000000000 0.0000000000000000 0.0000000000000000 3.1243500837272240 3.2519159413732392 1.1275861000030569 1.0664002552122094 656.65092153421040 656.65095420547379 1.0618623903187012 
-27.132585546268324 -129.85870574419639 141.41086096645807 -27.132585546268320 -129.85870574419639 141.41086096645810 -244.02760868587836 1.0486145914370196e-05 1.2894855951750854e-05 1.5158402707282154e-05 0.0000000000000000 6.6784551375209666e-08 2.8666065743365717e-08 3.1367761286205109e-05 0.013232570382049667 2.8875781985715424e-11 -1.2217360656395375e-10 1.5639088953519341e-10 0.0000000000000000 -26.768365491316434 -129.50173712462359 143.84833436668455 49.139845408488213 0.0000000000000000 0.0000000000000000 0.0000000000000000 0.0000000000000000 3.1273034705313241 3.2587991314633005 1.1315320505373132 1.0666785963144616 697.38583035330203 697.38583266823127 1.0637183082667905 
-40.562916226462406 -65.359235411029459 151.93686923797785 -40.562916226462406 -65.359235411029445 151.93686923797787 -349.17036931264857 -9.4802247713925511e-06 -6.3263168680537655e-07 1.7005183237469666e-05 -352.08581250043420 9.0609709610389721e-08 -9.3823797620018468e-09 2.5950421068898773e-05 0.013649709645651225 8.6456888785969884e-11 -9.8541011921372973e-11 -8.0844270135110193e-11 0.013696711717216063 -40.068761925200000 -65.476070995999990 153.95338104800004 156.95717166164070 0.0000000000000000 0.0000000000000000 0.0000000000000000 0.0000000000000000 3.1167378670329646 3.2366974055756619 1.1199880826752211 1.0579091938158744 852.08006933575052 852.07062742836922 1.0582983126145307 
-53.041639953708419 -59.495869205555607 147.05194214432402 -53.041639953708419 -59.495869205555628 147.05194214432407 -354.52327326079501 -1.0518932894290814e-05 -2.3717600188611436e-06 1.2737723068517467e-05 -355.98154603188334 1.1274673443473215e-07 -1.2841204877211965e-08 2.8464509151504558e-05 0.013701656712864200 1.3997213232272630e-10 -7.0854647629653120e-11 -3.3663344628429986e-11 0.013739150898295915 -52.426757905599978 -59.655776269200025 149.26381449600007 118.05125250056595 0.0000000000000000 0.0000000000000000 0.0000000000000000 0.0000000000000000 3.1221167875267630 3.2478251576226111 1.1257392896667893 1.0581661045198312 872.36300337032492 872.36694838460801 1.0610173510081649 
-35.619243073024812 -65.917032079952335 142.61007738987468 -35.619243073024805 -65.917032079952349 142.61007738987470 -338.95706474233509 -2.6532895084538476e-06 1.5181680669372414e-06 6.1799047749612935e-07 -338.75620615693958 8.1839723706234060e-08 -9.0533439633944113e-09 3.0750569742110656e-05 0.013615871879948723 2.5523228382686637e-11 -3.4273080930534648e-11 9.5533606064220796e-11 0.013618592763426649 -35.172917262399999 -66.029770167599992 144.99959110400002 155.12084301790807 0.0000000000000000 0.0000000000000000 0.0000000000000000 0.0000000000000000 3.1207975501116847 3.2447705077754416 1.1239975388109795 1.0593380212945831 843.41435016712978 843.41697157815349 1.0601887365425837 
-51.008035809191689 -66.481536875074866 139.69747455894691 -51.008035809191689 -66.481536875074866 139.69747455894688 -345.63750317688442 -1.0374989848627732e-05 6.1357196117741386e-06 7.6301000706665968e-06 0.0000000000000000 1.0913915703125721e-07 -8.7203279042213921e-09 3.2249576779719291e-05 0.013654277333311093 1.4906407885995091e-10 -1.8851390551867825e-10 7.9054588440374919e-11 0.0000000000000000 -50.412828244765279 -66.590128188430739 142.20347059834828 136.07757377940416 0.0000000000000000 0.0000000000000000 0.0000000000000000 0.0000000000000000 3.1080783159043488 3.2180006791471727 1.1099201545803294 1.0548998575398392 828.03047763107361 828.02541332735325 1.0535145393740140 
-95.586206252734598 -159.28991738916804 72.430702942466340 -95.586206252734627 -159.28991738916804 72.430702942466354 -590.08876456198198 -1.4442356599777847e-05 -2.0567416974032127e-05 -2.9464175963038504e-05 -590.28734278642628 1.8822000107110440e-07 4.6027622047084542e-08 6.6869251917012220e-05 0.016970811494491551 -1.2153723466394422e-10 3.7764946264444002e-10 4.7562230839026259e-10 0.017181267270678095 -94.559718839999974 -158.71675115199997 77.626866652000004 109.98746742214213 0.0000000000000000 0.0000000000000000 0.0000000000000000 0.0000000000000000 3.1190188049690444 3.2412457026761055 1.1222517830557668 1.0596185329964376 1276.8048079023554 1276.8047861056909 1.0593614441878052 
-90.660976835472539 -159.03771881727641 77.442629674837818 -90.660976835472567 -159.03771881727647 77.442629674837832 -549.13516828560250 -5.1889668651030219e-05 -4.7339748699174783e-05 -6.0149514406514905e-05 -535.59495405053985 1.7948274459722580e-07 4.5878851273606365e-08 6.4289801894545917e-05 0.016655754180415931 1.0886199348783471e-10 8.2297265495895813e-10 1.1335796036544724e-09 0.016825507465202109 -89.682139475999989 -158.46640519600001 82.438353807199988 112.88451412247700 0.0000000000000000 0.0000000000000000 0.0000000000000000 0.0000000000000000 3.1203649536206721 3.2438271345413927 1.1234848181668988 1.0596185329964378 1202.6990094574683 1202.6988537392840 1.0599361447992270 
-103.81597444016028 -155.48928596811399 81.787004377122045 -103.81597444016020 -155.48928596811399 81.787004377122045 -542.72911086658769 -1.1898120392929135e-05 -1.1183774802790726e-05 -6.8404149947293491e-05 0.0000000000000000 2.0281946770672743e-07 4.3785632786175199e-08 6.2053915780069246e-05 0.016392941993802538 2.5513627326819121e-10 2.7092961765991864e-10 3.6537448478099569e-10 0.0000000000000000 -102.70986659571734 -154.94403864466588 86.608986019839278 111.02505284862640 0.0000000000000000 0.0000000000000000 0.0000000000000000 0.0000000000000000 3.1216257505619889 3.2466273705254638 1.1250271613993166 1.0580848559326068 1203.8304881599938 1203.8305850361210 1.0606919948050191 
-101.49067598641990 -167.80966440142151 78.725662739210819 -101.49067598641990 -167.80966440142137 78.725662739210790 -574.52042741589071 -6.7339368225754936e-06 -1.4195837879149045e-05 -6.5505160173839690e-05 0.0000000000000000 1.9869442839659521e-07 5.1053468674844282e-08 6.3629473078918863e-05 0.016877340697359789 1.1293970274695485e-11 4.2749752124725657e-10 1.5557500872811101e-10 0.0000000000000000 -100.40706467681501 -167.17391327890167 83.670075146830683 105.53983917324770 0.0000000000000000 0.0000000000000000 0.0000000000000000 0.0000000000000000 3.1193339169329635 3.2418984237821031 1.1225894239137946 1.0583790513108815 1247.0183651232803 1247.0183923424986 1.0595256418630610 
-115.84656226063507 -99.943063872409624 92.165337928993921 -115.84656226063505 -99.943063872409624 92.165337928993935 -454.21110170961492 -1.1364128173335704e-05 -1.5892469860945869e-05 -4.8809644844205329e-05 -459.93869945155740 2.2416150450189486e-07 1.1018734480394698e-08 5.6712578187401170e-05 0.015484412708269037 1.6443337895220611e-10 5.0219072841662312e-10 6.7763021916459082e-10 0.015523339192441339 -114.62406224400000 -99.805851428000011 96.572263865600007 85.211636250682801 0.0000000000000000 0.0000000000000000 0.0000000000000000 0.0000000000000000 3.1224336944714830 3.2476923307968515 1.1252545993200977 1.0539363849067946 1045.3731982371610 1045.3633452828342 1.0607590397526878 
-112.27551335200337 -91.170411726460756 95.966354817937315 -112.27551335200337 -91.170411726460756 95.966354817937344 -429.13244325173883 -5.0391684908059466e-06 -7.4639573058737313e-07 -5.3200890598904220e-05 -425.69390602246648 2.1782652841195738e-07 5.8437120697973910e-09 5.4756337870998095e-05 0.015134508746326844 -1.0218060806255510e-11 -8.9256168073861279e-11 8.7437305826863657e-10 0.014959335944247134 -111.08756211600000 -91.097641973600034 100.22126851279998 99.535403830130534 0.0000000000000000 0.0000000000000000 0.0000000000000000 0.0000000000000000 3.1309669148900232 3.2659969491324783 1.1350717645525650 1.0575215504805056 1018.3871975592830 1018.3899563327140 1.0654417413417927 
-114.11004783500911 -97.777106508638283 104.47206228998641 -114.11004783500908 -97.777106508638312 104.47206228998638 -394.81400213604218 -4.9359993089963084e-06 -3.3467123944321616e-06 -4.7036233674622880e-05 -394.26268176584409 2.2108095358575050e-07 9.7410242094753113e-09 5.0378770433567865e-05 0.014594387865195525 1.2086221848349368e-11 5.7296351938074215e-11 5.7123244289726494e-10 0.014568230921468556 -112.90434805199999 -97.655804887999992 108.38681131359999 128.09762094244454 0.0000000000000000 0.0000000000000000 0.0000000000000000 0.0000000000000000 3.1217383293330463 3.2472878473943463 1.1255821487488602 1.0575028776677546 944.36510116809234 944.40580528257863 1.0609363667795224 
-108.30419628589490 -104.00827624047345 96.308952666153857 -108.30419628589485 -104.00827624047348 96.308952666153814 -423.34042284033114 -5.3230535811745494e-05 -5.1466127808647658e-06 -5.6625982998512478e-05 0.0000000000000000 2.1078149319009307e-07 1.3416816657674246e-08 5.4580015662608616e-05 0.015050070768951410 1.3579165676280757e-09 7.5302582584805712e-11 2.9666092885487499e-10 0.0000000000000000 -107.15466629968294 -103.84120130723400 100.55016500991876 102.24201981555134 0.0000000000000000 0.0000000000000000 0.0000000000000000 0.0000000000000000 3.1010717444831877 3.2022711868024532 1.1011707142068792 1.0491197581120726 944.78708707848284 944.75427474705077 1.0493180045375252 
-27.312192362261239 -115.54486088118229 99.093876949587198 -27.312192362261246 -115.54486088118223 99.093876949587255 -142.63712096982735 4.2408782539189994e-05 1.9378391527007870e-05 -6.0101649761008798e-05 0.0000000000000000 1.6442902410827157e-07 -3.1881995136120402e-06 6.1153089959957427e-05 0.012467762977964538 -7.7717334178862443e-10 -1.5199021787991141e-10 1.3615797726928991e-09 0.0000000000000000 -26.889884864405381 -115.37486796036181 103.37575244326078 96.382960025775517 0.0000000000000000 0.0000000000000000 0.0000000000000000 0.0000000000000000 3.1656715300934777 3.3381827919252585 1.1725698284210506 1.0826399505729212 573.58546866917982 573.59529891768761 1.0828402295577317 
-110.74144376079533 -103.78722448153570 150.10778854900499 -110.74144376079538 -103.78722448153574 150.10778854900497 -360.27781838561958 1.1345024271985798e-06 3.8221536658793282e-06 3.6373774836318204e-07 -361.83979759235143 2.1510512131228676e-07 1.3286413524937757e-08 2.6891780045446012e-05 0.013649195927955120 -3.9312153350752568e-11 -1.3591044376983743e-10 1.7508765380550860e-12 0.013654020426547951 -109.56833416800004 -103.62177336400003 152.19744990400002 70.302883591683823 0.0000000000000000 0.0000000000000000 0.0000000000000000 0.0000000000000000 3.1149383848059946 3.2324873148877886 1.1175639673976632 1.0572534929574149 867.95388735239055 867.94768757137490 1.0571556699943712 