# For a description of the Tecplot format see the Tecplot User's guide.
#
Variables=x,y,z,s_u,s_v,s_w,s_p,mono_f_vel_u,mono_f_vel_v,mono_f_vel_w,const,u_nu,v_nu,w_nu,p_nu,x_nu,y_nu,z_nu,const,u_ref,v_ref,w_ref,vol_ref,x_ref,y_ref,z_ref,const,I1,I2,I3,J,p1,p2,p3
Zone f=fepoint, n=3174, e=16683, et=brick, c=black
-25.0128 -154.331 111.080 -25.012752210571872 -154.33139222831682 111.08047017427451 -120.22439549580787 -6.9582440074800422e-06 -2.9567444400775995e-05 -2.9352356488556312e-05 -117.92941029972877 5.9584801676004773e-10 4.0735748108033926e-10 4.4618847416799667e-07 0.00060328603463201890 1.3263615231569664e-12 -3.1586455772238956e-12 3.3145330163651760e-11 0.00059710297255832756 -24.903554063199991 -154.16086777200002 112.24023381839994 89.724962256112903 0.0000000000000000 0.0000000000000000 0.0000000000000000 0.0000000000000000 3.0379305889688535 3.0760938995965499 1.0381625494105493 1.0196491536018040 285.45132525760624 285.45860314688008 1.0188997065011640 
-37.603439647785223 -155.36676248301899 113.78235552809620 -37.603439647785201 -155.36676248301904 113.78235552809613 -106.68889921246087 2.3562591028699471e-05 -2.7025560179991911e-05 -1.5508687714794506e-05 0.0000000000000000 -3.6124098412936456e-09 1.7083009169964282e-07 2.7203872568063129e-07 0.00060828820563563560 1.1190782968492452e-11 -3.3707008553538723e-11 3.4996280143617205e-11 0.0000000000000000 -37.438273663334591 -155.10473791080037 114.93291110338620 89.036758072416930 0.0000000000000000 0.0000000000000000 0.0000000000000000 0.0000000000000000 3.0541581095751882 3.1091302196235193 1.0549750473725874 1.0256555899696536 295.64640694736130 295.63961834937362 1.0271258240061558 
-31.672286986116681 -148.03490282472998 118.79966612607042 -31.672286986116667 -148.03490282473004 118.79966612607042 -97.527661482177862 7.9741487960981169e-06 -1.9931247075309115e-05 -3.1971099647705734e-06 0.0000000000000000 7.0753896491693169e-10 3.7225245108629679e-10 4.0845547299994678e-07 0.00059567612557629422 4.5466594614273415e-12 -1.7975666724697014e-12 8.2320974512221070e-12 0.0000000000000000 -31.542619574254449 -147.87907313389167 119.86135157363466 98.260374494724786 0.0000000000000000 0.0000000000000000 0.0000000000000000 0.0000000000000000 3.0447344698018850 3.0899673282036990 1.0452336781650819 1.0230947113450930 265.79170537413552 265.84991646776621 1.0223590949690047 
-28.768397568985069 -143.11172154155173 110.96326815508434 -28.768397568985058 -143.11172154155167 110.96326815508429 -96.063521393719427 1.0101626892695946e-05 -2.3563343891030122e-05 -1.6743398868421530e-05 0.0000000000000000 6.5883650618436818e-10 3.4482255939494161e-10 4.4676139099308898e-07 0.00061398525027450007 3.9739756425971996e-11 8.1118507692408063e-12 2.0778736204393734e-11 0.0000000000000000 -28.647655777685479 -142.96738158566356 112.12452093910819 112.69127588814607 0.0000000000000000 0.0000000000000000 0.0000000000000000 0.0000000000000000 3.0472766074251472 3.0951692123076344 1.0478947830595404 1.0232190098391760 266.52979910975154 266.51696095467292 1.0236669652546226 
-24.369079902459681 -200.71092483785168 72.071139927092261 -24.369079902459678 -200.71092483785171 72.071139927092261 -253.76313954294255 8.0992842824039183e-07 1.0376627723705537e-08 6.4683529980530443e-07 -254.72830103854494 5.8505312400258802e-10 6.6592920067165551e-10 6.3687402196421772e-07 0.00068007604244678973 2.7626571839672791e-12 -1.1371413669281175e-14 1.9500172204128634e-13 0.00067985837505471210 -24.261860196399997 -200.43215969199997 73.726546483199982 142.71380061529433 0.0000000000000000 0.0000000000000000 0.0000000000000000 0.0000000000000000 3.0368085008299306 3.0739284084357452 1.0371206611817387 1.0183687710856302 520.11418363998416 520.11418044347147 1.0183912340187706 
-24.264295395040840 -187.88791647925166 73.674852046649974 -24.264295395040843 -187.88791647925163 73.674852046649988 -250.49710737957963 3.9779929440784629e-06 -5.7200929277923857e-06 -1.7659035244525176e-06 -251.53315210859097 5.8329561319903078e-10 5.9444704714195485e-10 6.2903474606912368e-07 0.00067854322401836439 5.5498201686372443e-14 3.3764343866021876e-12 2.3510515833674548e-12 0.00067892300889771991 -24.157397762799999 -187.63907770800003 75.309882232799993 165.73632395326644 0.0000000000000000 0.0000000000000000 0.0000000000000000 0.0000000000000000 3.0368104265365861 3.0739302191197377 1.0371205316840126 1.0183687710856264 514.66048789176170 514.66048162898107 1.0183910675815864 
-35.025516432097611 -195.67834904142754 80.042555400150107 -35.025516432097604 -195.67834904142748 80.042555400150079 -248.95027434619553 1.4365705386847217e-06 -4.4915307120409292e-06 -9.1105606345713167e-06 0.0000000000000000 7.6377946328642921e-10 6.3787830573147620e-10 5.9790811368642949e-07 0.00068106875819331949 2.7502783504887936e-12 3.4202686424436089e-12 1.9432833075283138e-12 0.0000000000000000 -34.885542273181727 -195.41132893576267 81.596679120775832 139.46796289390394 0.0000000000000000 0.0000000000000000 0.0000000000000000 0.0000000000000000 3.0364945110419126 3.0732973961012138 1.0368036402351093 1.0180378037166047 511.34351312803494 511.34352195234402 1.0182354645345317 
-18.913050590635425 -194.79465774600482 79.856466883159655 -18.913050590635418 -194.79465774600490 79.856466883159598 -252.04121562594091 1.9845487831826049e-06 -2.7919946958100160e-06 -4.2354327084162597e-06 0.0000000000000000 4.9354501041598553e-10 6.3296529129175383e-10 5.9881775626990919e-07 0.00067708778135076929 2.6583099613563665e-13 2.8159536964929881e-12 1.6044759381855537e-12 0.0000000000000000 -18.822600960987238 -194.52970000168264 81.412954998504986 111.95285379220412 0.0000000000000000 0.0000000000000000 0.0000000000000000 0.0000000000000000 3.0368744328665582 3.0740598271588184 1.0371861449433899 1.0183687710856288 519.05122077420083 519.05122767949786 1.0184234442385363 
-22.766275274988100 -103.25924147275887 41.190918530890151 -22.766275274988097 -103.25924147275886 41.190918530890151 -253.10283114067650 -6.4072408363673833e-06 7.2991293216652716e-06 -9.8865515475568751e-06 -255.00728642578673 5.5817046124007064e-10 1.2263035031878644e-10 7.8782281631717410e-07 0.00068521727137756095 3.7549214156111825e-12 -9.9138740273569582e-12 1.3533402524740523e-11 0.00068802784906526776 -22.663982073999996 -103.20790935200000 43.238681550399988 69.202643319072678 0.0000000000000000 0.0000000000000000 0.0000000000000000 0.0000000000000000 3.0367364374445880 3.0737827898775376 1.0370471007907824 1.0183687710856297 519.38517246606523 519.38624174388667 1.0183551606704084 
-30.277039557153039 -110.84213604640448 44.989253681245849 -30.277039557153042 -110.84213604640446 44.989253681245835 -247.71086762753524 5.0734927225715677e-07 1.1663095623248308e-05 -1.3364045656331556e-05 -245.68742209913356 6.8413909953823893e-10 1.6490014909109616e-10 7.6925578573749941e-07 0.00067935389353626738 5.0408587387793080e-12 -1.4756176316844472e-11 1.5975336573875832e-11 0.00067912585915418891 -30.151660686400003 -110.77310694400001 46.988755992800002 74.715282964229786 0.0000000000000000 0.0000000000000000 0.0000000000000000 0.0000000000000000 3.0369258451522003 3.0741629835434412 1.0372378882980338 1.0183687710856277 509.15056283213659 509.15063847426455 1.0184489570700228 
-18.825330319795246 -103.61922056101319 48.047777843979887 -18.825330319795249 -103.61922056101319 48.047777843979880 -243.70927050336084 -7.7783357267008892e-06 6.0369722973673969e-06 -1.4284607573426543e-05 -244.04463372425121 4.9207456165323293e-10 1.2463644005755728e-10 7.5430509349772024e-07 0.00067512891067399974 6.0292588951177994e-12 -1.0825019568347325e-11 1.4911261354135796e-11 0.00067547632137071416 -18.735150314000002 -103.56704831999998 50.008419303199993 79.719497061372692 0.0000000000000000 0.0000000000000000 0.0000000000000000 0.0000000000000000 3.0367516255472871 3.0738131148064105 1.0370622368955547 1.0183687710856284 502.62063701522135 502.62048163288006 1.0183625237354315 
-25.602891276897015 -98.527879238047575 49.034128833330740 -25.602891276897022 -98.527879238047575 49.034128833330740 -246.76370050899888 5.8977550454745641e-08 2.9286124058984515e-06 -2.1905466912275615e-05 0.0000000000000000 6.0574619625830561e-10 9.6245789116267146e-11 7.4948361206139690e-07 0.00068005789888235426 3.0352437263549695e-12 -7.0968011932308281e-12 1.6984056648317062e-11 0.0000000000000000 -25.491879232152165 -98.487589184379729 50.982237960580505 72.292163684038698 0.0000000000000000 0.0000000000000000 0.0000000000000000 0.0000000000000000 3.0367148719398482 3.0737407359665760 1.0370266190196213 1.0183687710856291 507.34845982759782 507.34993099986048 1.0183449503558952 
-25.426583821232796 -104.25771332137673 107.54158436410633 -25.426583821232803 -104.25771332137673 107.54158436410628 -96.342785301227721 7.5373438605543230e-06 2.5535931680862453e-05 -5.8733327545599872e-06 0.0000000000000000 7.9829036249791384e-08 -6.6041987017507135e-08 5.5554506871618417e-07 0.00058030933785703205 -2.9899468216204634e-11 -5.9909041276862870e-12 1.0778330264402700e-10 0.0000000000000000 -25.283559732051039 -104.23282252886388 108.75695162467670 96.378087069502698 0.0000000000000000 0.0000000000000000 0.0000000000000000 0.0000000000000000 3.0448444801716810 3.0900995237908639 1.0452541465626277 1.0237632858915808 258.92399192880953 258.93147810399273 1.0223680226756604 
-26.064489666560249 -118.06483117798997 109.46572038751462 -26.064489666560238 -118.06483117799004 109.46572038751457 -77.544774652925895 1.3285162400530517e-05 3.6824752227766128e-06 -1.0201642221530995e-05 0.0000000000000000 4.6057784048102821e-08 -4.5469109770371278e-08 5.8281252006787100e-07 0.00058950648974839142 -3.6746490347511357e-11 4.6309596439219592e-11 8.3325800219491397e-11 0.0000000000000000 -25.913646985361510 -118.01095136745833 110.66456878241424 88.846747377876298 0.0000000000000000 0.0000000000000000 0.0000000000000000 0.0000000000000000 3.0620864689128533 3.1251432224027975 1.0630599776918492 1.0287354293532105 259.97278890077911 259.96966627833257 1.0310571673806388 
-36.467790146104846 -112.70593852214341 110.87054388925711 -36.467790146104818 -112.70593852214337 110.87054388925709 -78.779192741359310 -6.3800119209911810e-06 1.8215399678013698e-05 1.1999498661651652e-05 0.0000000000000000 1.6000540009120369e-07 -1.4081115733601124e-07 6.1455066306004201e-07 0.00056917788083951551 2.0340619510842948e-11 3.3782423009942247e-12 -1.5474332181087817e-11 0.0000000000000000 -36.236867317722961 -112.72601430119678 112.03758904139967 95.996160021407249 0.0000000000000000 0.0000000000000000 0.0000000000000000 0.0000000000000000 3.0641472979812514 3.1293429522791412 1.0651999301349204 1.0305663410444730 266.29694098639379 266.30309502933255 1.0320866857017066 
-33.574375517949868 -105.06170919230514 104.34097859027706 -33.574375517949868 -105.06170919230512 104.34097859027710 -95.749293408893706 9.1562995322183368e-07 2.9515388465825724e-05 -9.7865039030704601e-06 0.0000000000000000 2.0246805378490103e-07 -1.3432555624873206e-07 7.4049305772715688e-07 0.00058750649098999520 -2.3853685371924551e-11 -1.0364864344623423e-11 6.9242954384384327e-11 0.0000000000000000 -33.380789828628046 -105.09637623893835 105.63342596379557 85.433794965156210 0.0000000000000000 0.0000000000000000 0.0000000000000000 0.0000000000000000 3.0553949035797250 3.1114524801406751 1.0560580930781855 1.0264181962503431 272.79461745776831 272.79305079044229 1.0276453479332128 
-112.59782878469512 -160.84921537513569 123.66439563888403 -112.59782878469512 -160.84921537513566 123.66439563888405 -178.48913509406859 9.8571647920418375e-07 -3.1283107924946731e-06 -8.5275898714373533e-06 -178.06154832245900 2.0648061246908433e-09 4.4369607987704285e-10 3.8467568508337990e-07 0.00062093465414669684 -9.4861587580067114e-13 2.4822007443442657e-12 9.6837314934763654e-12 0.00062071067388741496 -112.21942232800005 -160.66347960400000 124.66427103520003 147.55923210393107 0.0000000000000000 0.0000000000000000 0.0000000000000000 0.0000000000000000 3.0400145890584196 3.0804569767366199 1.0404436709416378 1.0183687710856268 395.72098302145417 395.72036111978645 1.0200290253427149 
-99.871908548793840 -158.27441565541142 115.48098943379156 -99.871908548793769 -158.27441565541136 115.48098943379149 -182.07544921026619 -7.9499314098713113e-06 -5.5461428359757309e-06 -1.6757619070308731e-05 0.0000000000000000 1.8513717989221412e-09 4.2935260902154932e-10 4.2467783956112720e-07 0.00062510245552034962 5.9633330787979250e-12 -3.0969495480994841e-12 -5.8272836448809151e-12 0.0000000000000000 -99.532617471171264 -158.09468895943013 116.58484116745363 117.70414803503969 0.0000000000000000 0.0000000000000000 0.0000000000000000 0.0000000000000000 3.0287329777721554 3.0573371733903421 1.0286022758171951 1.0149807426481467 378.31840079097140 378.32239757580095 1.0141941127674843 
-104.69668343401750 -149.01309240515590 119.84333581282780 -104.69668343401750 -149.01309240515590 119.84333581282775 -174.88846456858178 -6.9224236459793616e-06 -6.0428426165202811e-06 -7.8775944010807638e-06 0.0000000000000000 1.9322930686072048e-09 3.7772457384122049e-10 4.0335380324663106e-07 0.00062061694800763382 -1.5304466361364962e-12 4.9589718247376610e-12 -1.1665811089857721e-12 0.0000000000000000 -104.34256255272837 -148.85497981259945 120.89176065121424 119.29379793442074 0.0000000000000000 0.0000000000000000 0.0000000000000000 0.0000000000000000 3.0293727101255339 3.0587749262973336 1.0294018872664490 1.0152130674128326 367.30756804843236 367.30663514823578 1.0145865237906759 
-100.87277711994568 -162.47257909993158 123.56669872468855 -100.87277711994561 -162.47257909993155 123.56669872468862 -176.62461512366610 -4.6542618378736052e-06 -8.6919393837102896e-06 -7.6393403726422155e-06 0.0000000000000000 1.8681610911008839e-09 4.5275816429324328e-10 3.8515325018195762e-07 0.00062014010807458870 -1.4512465282603563e-12 1.4959975028769809e-12 6.0867571532228707e-12 0.0000000000000000 -100.53040969477119 -162.28305471776312 124.56781543385799 141.51484144144280 0.0000000000000000 0.0000000000000000 0.0000000000000000 0.0000000000000000 3.0302454996813846 3.0606140332152596 1.0303683815509823 1.0154706869411245 371.85534805355752 371.85542942605514 1.0150650410430344 
-78.674665153847570 -148.95541597513463 87.995148884113121 -78.674665153847599 -148.95541597513463 87.995148884113149 -184.84606073374349 -1.9901039779102573e-05 -1.3685651872205961e-05 -6.7018055242016202e-06 -184.80494030006361 1.4958591240676888e-09 3.7738207003812363e-10 5.5903422024883287e-07 0.00064360103708894958 1.3094651077199272e-11 1.6877322859181564e-11 7.1619881346191137e-12 0.00064945582815889222 -78.400527573600002 -148.79743798799998 89.448228916799977 108.06316173413846 0.0000000000000000 0.0000000000000000 0.0000000000000000 0.0000000000000000 3.0392627537824572 3.0788865071777254 1.0396248625704898 1.0183687710856293 405.66306494359895 405.66621114605738 1.0196248748084640 
-80.428892799695788 -162.72475723223488 86.298370843152128 -80.428892799695788 -162.72475723223488 86.298370843152114 -215.48460699541917 -1.1733675388308610e-05 -2.2008387091020811e-05 -1.2250035773462473e-05 -216.48514918336639 1.5252820603772756e-09 4.5416437277623340e-10 5.6732841580142690e-07 0.00066367601052054459 -6.4893444562797828e-12 2.3446989488814619e-11 7.6696764313272766e-12 0.00066887508689629136 -80.149363288800018 -162.53464431600008 87.773009718400019 109.57810873427631 0.0000000000000000 0.0000000000000000 0.0000000000000000 0.0000000000000000 3.0397045766092670 3.0797501686841859 1.0400464393498066 1.0183687710856280 460.29611158350940 460.28730668736085 1.0198339668211545 
-84.587791237693722 -160.36904853302556 93.591217456772114 -84.587791237693679 -160.36904853302562 93.591217456772071 -201.66971570896064 -8.8313200436129499e-06 -1.5279844705544868e-05 -2.2806639760717345e-05 0.0000000000000000 1.5950277973408868e-09 4.4101483576142181e-10 5.3167950220256444e-07 0.00065603286038331068 9.2990921169309692e-12 6.7733973371844507e-12 1.6800383807677931e-11 0.0000000000000000 -84.295478612813938 -160.18443337667750 94.973195224810283 106.11323630727971 0.0000000000000000 0.0000000000000000 0.0000000000000000 0.0000000000000000 3.0296892426902109 3.0595945205551671 1.0299055615847050 1.0155213774963299 413.10722794210608 413.08951135989622 1.0148332959716131 
-86.773040058564476 -151.55419213453993 91.222409628359529 -86.773040058564462 -151.55419213453987 91.222409628359571 -196.33755410268370 -9.8420394594280786e-06 -1.9817333334567454e-05 -2.2095590952100444e-05 0.0000000000000000 1.6316714854247572e-09 3.9187925127137646e-10 5.4325871934324255e-07 0.00065015656068630439 7.4734558514607290e-12 1.0417994476283945e-11 8.4458284073409901e-12 0.0000000000000000 -86.474010682800568 -151.39014911596544 92.634484883397832 94.367740677547317 0.0000000000000000 0.0000000000000000 0.0000000000000000 0.0000000000000000 3.0334091722933194 3.0670971752972691 1.0336887580151393 1.0161621060869919 410.16900149483257 410.17625794693771 1.0167046538290438 
-26.131292710524086 -132.55058746212961 137.82466605294965 -26.131292710524082 -132.55058746212964 137.82466605294965 -120.81115099954124 7.8001531762778512e-06 -6.7839523709055557e-06 3.1070271182692024e-05 -125.83386669243801 6.1460669192880957e-10 2.8593083456485141e-10 3.1545741130400984e-07 0.00055188191533164343 6.6523660244240779e-12 -4.5611470397346092e-12 9.1351039924887295e-12 0.00054470161025852847 -26.018656529999991 -132.43089511199997 138.64462455200004 49.421240865332216 0.0000000000000000 0.0000000000000000 0.0000000000000000 0.0000000000000000 3.0363870364514010 3.0730722586913020 1.0366860897477479 1.0198133902224420 287.46943034100639 287.70239863154433 1.0181826088704646 
-32.628052040132737 -134.08007519309203 136.76958607543679 -32.628052040132737 -134.08007519309197 136.76958607543673 -116.93567115013643 -1.1981263521177847e-06 4.3351537089828833e-06 1.9062975267985323e-05 -104.21599261245545 7.2357143193757523e-10 2.9446606264471598e-10 3.2061486221479640e-07 0.00055396024512307151 4.5527837413693203e-12 7.3902298593811620e-12 2.9944076706451879e-11 0.00054776751455357846 -32.495446914399992 -133.95681332000001 137.60295016000006 48.530522504776933 0.0000000000000000 0.0000000000000000 0.0000000000000000 0.0000000000000000 3.0470883558627739 3.0947198392333757 1.0476330628649133 1.0235867295200147 303.71753034759882 303.68938710605829 1.0235289224775304 
-28.538238211983426 -136.56784494545278 139.51149852962817 -28.538238211983415 -136.56784494545280 139.51149852962817 -122.10181989434062 9.9638752711397301e-06 4.9085202178495203e-06 9.7125766234796108e-06 -127.05700195987990 6.5497655216129047e-10 3.0832109088052562e-10 3.0721181865089875e-07 0.00055047857535989685 1.0059822620407432e-11 -3.9993872152167192e-12 5.5498033713417557e-12 0.00054281151717509597 -28.418203856399998 -136.43877710800004 140.31002455199999 44.353383947079159 0.0000000000000000 0.0000000000000000 0.0000000000000000 0.0000000000000000 3.0388009809115961 3.0779184348898094 1.0391180684574091 1.0209960084003546 295.87898635708200 295.90501421839156 1.0193678619140574 
-26.883313140373911 -129.61457740585365 143.09534379680744 -26.883313140373911 -129.61457740585365 143.09534379680738 -128.06030431802162 3.2105272715247851e-06 3.9860154435794254e-06 6.5365220641582821e-06 0.0000000000000000 6.2722186472408126e-10 2.6957086562973137e-10 2.8969327692252023e-07 0.00054746028017285111 -1.1379523147458161e-12 -1.5412090334885538e-12 9.5882676751846036e-12 0.0000000000000000 -26.768365491316434 -129.50173712462359 143.84833436668455 49.139845408488213 0.0000000000000000 0.0000000000000000 0.0000000000000000 0.0000000000000000 3.0395159138093515 3.0794424550696760 1.0399276415442340 1.0210135435074994 309.48534279750226 309.55199300424823 1.0197657452622304 
-40.224716750941980 -65.439138449151685 153.33043501837298 -40.224716750941980 -65.439138449151670 153.33043501837298 -167.24844632591333 -3.6448396984820799e-06 -7.4380779953640860e-08 5.8196331963820380e-06 -168.28141021188685 8.5098281893403183e-10 -8.8225898808857992e-11 2.3966206486036867e-07 0.00058587753367891232 9.5360034531331357e-12 -4.6385428458253755e-12 -3.4561117632472516e-12 0.00058720058195123076 -40.068761925200000 -65.476070995999990 153.95338104800004 156.95717166164070 0.0000000000000000 0.0000000000000000 0.0000000000000000 0.0000000000000000 3.0356676423410245 3.0716438159207438 1.0359770586321524 1.0177644011805635 367.05900323739934 367.05681307864478 1.0178300020031155 
-52.620814341858157 -59.605228526225019 148.58051718394347 -52.620814341858143 -59.605228526225012 148.58051718394341 -169.27848559257799 -3.5975523014793107e-06 -1.0040753514534156e-06 4.7554570881029617e-06 -169.74041396508775 1.0588829743585215e-09 -1.2075562771940440e-10 2.6288062171531124e-07 0.00059298826870545700 5.8854633036388783e-12 4.2351170358960523e-14 -5.1588659726598886e-12 0.00059274211707363317 -52.426757905599978 -59.655776269200025 149.26381449600007 118.05125250056595 0.0000000000000000 0.0000000000000000 0.0000000000000000 0.0000000000000000 3.0376759498080830 3.0757020440309764 1.0380270544383039 1.0178733741404122 374.91596536463805 374.91675373420264 1.0188371346131153 
-35.313777442797736 -65.994132868358619 144.26141636405768 -35.313777442797736 -65.994132868358619 144.26141636405765 -163.49758099266870 -1.2071482994668931e-06 6.8335798737948977e-07 5.8089622399859009e-07 -163.42051279040510 7.6861699643826498e-10 -8.5131707239227694e-11 2.8399326135186698e-07 0.00058324842687942989 4.8607087310242654e-12 -5.3410791041931712e-12 5.3392820649784737e-12 0.00058082975934830368 -35.172917262399999 -66.029770167599992 144.99959110400002 155.12084301790807 0.0000000000000000 0.0000000000000000 0.0000000000000000 0.0000000000000000 3.0373028941097640 3.0749121419688281 1.0376099982381908 1.0183083131189632 364.42958135965449 364.42951331579576 1.0186316305443874 
-50.600675424792442 -66.555801713591350 141.42931183803381 -50.600675424792449 -66.555801713591350 141.42931183803378 -166.05067271231698 -3.6994354129895778e-06 1.7669954386786095e-06 3.0179188676973096e-06 0.0000000000000000 1.0250041579396019e-09 -8.2009538049376842e-11 2.9783716337661298e-07 0.00059055238929527456 8.3747251808565282e-12 -3.0025670827332091e-12 2.9060998654259949e-12 0.0000000000000000 -50.412828244765279 -66.590128188430739 142.20347059834828 136.07757377940416 0.0000000000000000 0.0000000000000000 0.0000000000000000 0.0000000000000000 3.0327962970655578 3.0657537419871752 1.0329572584654836 1.0167747859813960 359.02414987482092 359.02434004198398 1.0163433899312084 
-94.883677702991562 -158.89793301462703 76.021654356163992 -94.883677702991548 -158.89793301462709 76.021654356163964 -244.88025532441830 -4.8711210920590209e-06 -6.3864027488304097e-06 -9.4022263754320995e-06 -244.85350089104710 1.7677084448997071e-09 4.3282127881738575e-10 6.1756309888139072e-07 0.00066775347652594326 -8.4840534870366304e-13 4.0709523480871924e-12 5.3433492100417147e-12 0.00066982228907403103 -94.559718839999974 -158.71675115199997 77.626866652000004 109.98746742214213 0.0000000000000000 0.0000000000000000 0.0000000000000000 0.0000000000000000 3.0365918000757328 3.0734919775669449 1.0369009286192878 1.0183687710856291 504.53667644029241 504.28310790981692 1.0182830612454110 
-89.991060008384920 -158.64700143376601 80.895061822546168 -89.991060008384920 -158.64700143376601 80.895061822546182 -231.37426052245721 -1.7403397238511158e-05 -1.4955990926648608e-05 -1.9431215852758496e-05 -226.72774097152762 1.6856520276831155e-09 4.3141479277863937e-10 5.9374089600439106e-07 0.00066464560508704671 1.7997832114820168e-12 1.0062128546847676e-11 1.1874333174856996e-11 0.00066487428262773120 -89.682139475999989 -158.46640519600001 82.438353807199988 112.88451412247700 0.0000000000000000 0.0000000000000000 0.0000000000000000 0.0000000000000000 3.0369844918562618 3.0742661631869321 1.0372823531470596 1.0183687710856288 480.10408906203605 479.71505764805602 1.0184696130581743 
-103.05895362317260 -155.11639514309266 85.119367013227986 -103.05895362317264 -155.11639514309266 85.119367013227944 -229.75149596566695 -4.0069595816824813e-06 -3.3843195436662200e-06 -2.2198532619766400e-05 0.0000000000000000 1.9048223762196947e-09 4.1174180731573529e-10 5.7309163192797996e-07 0.00066131848548038586 2.1350957230899713e-12 1.9938812734496938e-12 4.0234866981649030e-12 0.0000000000000000 -102.70986659571734 -154.94403864466588 86.608986019839278 111.02505284862640 0.0000000000000000 0.0000000000000000 0.0000000000000000 0.0000000000000000 3.0374635567802089 3.0752530169037966 1.0377902329129602 1.0178804850163738 481.39028468536748 481.20331974797421 1.0187219160167904 
-100.74905181024629 -167.37487866219868 82.142634512534784 -100.74905181024631 -167.37487866219871 82.142634512534784 -239.78817778893099 -2.4407067393829772e-06 -4.3017164820526712e-06 -2.1146421518185577e-05 0.0000000000000000 1.8660735942588325e-09 4.8007403607996935e-10 5.8764250399079277e-07 0.00066704362196283082 -1.1971892682241495e-12 4.8749447619186109e-12 8.1228160109800902e-13 0.0000000000000000 -100.40706467681501 -167.17391327890167 83.670075146830683 105.53983917324770 0.0000000000000000 0.0000000000000000 0.0000000000000000 0.0000000000000000 3.0367181243494392 3.0737474986780327 1.0370301292683743 1.0179771278108012 494.88906469303771 496.56730312834986 1.0183470404905106 
-115.00988257699483 -99.849225242857926 95.210864938291465 -115.00988257699485 -99.849225242857955 95.210864938291465 -202.47802136984063 -3.6828848957128213e-06 -4.9696861177589072e-06 -1.5892407751491222e-05 -204.35125168357825 2.1052585996831090e-09 1.0362241620320845e-10 5.2376234016549006e-07 0.00065251255146037818 4.0862431028164546e-12 1.0085782405773416e-11 1.3389329651333372e-11 0.00065311404467214402 -114.62406224400000 -99.805851428000011 96.572263865600007 85.211636250682801 0.0000000000000000 0.0000000000000000 0.0000000000000000 0.0000000000000000 3.0375516883062064 3.0753584388888626 1.0378064598357688 1.0165025168461701 432.31025144771235 431.45302703825081 1.0187253430038314 
-111.46247887282591 -91.120645002235051 98.906829599302498 -111.46247887282591 -91.120645002235051 98.906829599302469 -194.30082409739433 -1.6981276662244229e-06 -2.3186221919938360e-07 -1.7509433160133024e-05 -193.13894886993060 2.0457695190656544e-09 5.4953125383505608e-11 5.0569570708702827e-07 0.00064520547910980363 6.8627576009705209e-13 -7.4836807641091120e-13 1.7104965253244196e-11 0.00064093287699646285 -111.08756211600000 -91.097641973600034 100.22126851279998 99.535403830130534 0.0000000000000000 0.0000000000000000 0.0000000000000000 0.0000000000000000 3.0406923438435602 3.0817910312201326 1.0411000426070980 1.0177053838179249 424.29076853569796 424.22237152662905 1.0203485305462239 
-113.28486624050096 -97.694149180007685 107.17745694774602 -113.28486624050100 -97.694149180007656 107.17745694774607 -183.19879259679587 -1.5314779344804289e-06 -8.7216060883381524e-07 -1.4941093332712445e-05 -182.95974176432779 2.0763251326605392e-09 9.1595980800107668e-11 4.6526719854611548e-07 0.00063624467165433111 2.0238717094434615e-12 3.1349876991811284e-12 1.6952419749004811e-11 0.00063627673469210670 -112.90434805199999 -97.655804887999992 108.38681131359999 128.09762094244454 0.0000000000000000 0.0000000000000000 0.0000000000000000 0.0000000000000000 3.0375830019214307 3.0755388355054616 1.0379568366570504 1.0176549263303087 399.74816534015253 398.42559668267864 1.0188020376439779 
-107.51745733120259 -103.89401486399930 99.239958753142886 -107.51745733120256 -103.89401486399933 99.239958753142830 -192.30488620765564 -1.7052560808530137e-05 -1.5563341091663007e-06 -1.8696546328218510e-05 0.0000000000000000 1.9795931768817887e-09 1.2616457878422693e-10 5.0406730300878166e-07 0.00064712207217213901 1.6574950981218253e-11 4.1482913577720007e-12 1.5552565910757104e-12 0.0000000000000000 -107.15466629968294 -103.84120130723400 100.55016500991876 102.24201981555134 0.0000000000000000 0.0000000000000000 0.0000000000000000 0.0000000000000000 3.0301758083101622 3.0603282573976238 1.0301513802914499 1.0148965402664571 398.02769203170584 400.04727955877587 1.0149580351574621 
-27.029681180824262 -115.41905983162326 102.04468783616133 -27.029681180824248 -115.41905983162317 102.04468783616132 -87.596699299356843 1.5793582557398208e-05 9.7479311759674408e-06 -2.4082880462792017e-05 0.0000000000000000 5.0206786824277697e-08 -7.2707990146888955e-08 6.6896305132469661e-07 0.00062154218342917354 8.3574573323318421e-12 3.8201966437650682e-11 8.2264213857382532e-11 0.0000000000000000 -26.889884864405381 -115.37486796036181 103.37575244326078 96.382960025775517 0.0000000000000000 0.0000000000000000 0.0000000000000000 0.0000000000000000 3.0532709177222030 3.1072550842124493 1.0539858800847712 1.0267069404858551 259.63628078628267 259.63957869023920 1.0266365805491910 
-109.93856691039092 -103.67407362124641 151.55190632826219 -109.93856691039088 -103.67407362124641 151.55190632826222 -172.57738149552139 4.6701727843384115e-07 1.4996988739481171e-06 2.2777300301554154e-07 -173.17408355243879 2.0202089098808607e-09 1.2494041912169965e-10 2.4835587897342748e-07 0.00061446870576882247 -1.2098602767034830e-12 -3.8987338608377140e-12 -4.9999395191403650e-13 0.00061421765978354856 -109.56833416800004 -103.62177336400003 152.19744990400002 70.302883591683823 0.0000000000000000 0.0000000000000000 0.0000000000000000 0.0000000000000000 3.0351325712568005 3.0705079146108809 1.0353757525662055 1.0175462602021408 375.44870047598602 375.46837881366054 1.0175350081188645 