# For a description of the Tecplot format see the Tecplot User's guide.
#
Variables=x,y,z,s_u,s_v,s_w,s_p,mono_f_vel_u,mono_f_vel_v,mono_f_vel_w,const,u_nu,v_nu,w_nu,p_nu,x_nu,y_nu,z_nu,const,u_ref,v_ref,w_ref,vol_ref,x_ref,y_ref,z_ref,const,I1,I2,I3,J,p1,p2,p3
Zone f=fepoint, n=3174, e=16683, et=brick, c=black
-25.8090 -155.567 101.887 -25.808982009120825 -155.56718461841680 101.88746648729445 -420.37052327536190 -5.2486259866873705e-05 -0.00019320925913268022 -0.00020266136658587261 -391.99274427245024 1.0035852149314906e-09 3.9367265003420471e-10 1.3709559802066451e-05 -0.036251158918429921 -1.2023987308618304e-09 -4.1637085637214613e-09 -3.4343217768522145e-09 -0.036043080708729108 -24.903554063199991 -154.16086777200002 112.24023381839994 89.724962256112903 0.0000000000000000 0.0000000000000000 0.0000000000000000 0.0000000000000000 3.3496502975251299 3.7193105667315880 1.3693745158982642 1.1732235537948030 1374.2697594115079 1374.2695416589804 1.1698973188291828 
-38.732327576433200 -157.18733387597834 104.64436996330470 -38.732327576433214 -157.18733387597834 104.64436996330463 -336.46270475512807 0.00015956225185227599 -0.00014230484803300550 -9.6970217936033872e-05 0.0000000000000000 1.0533503777008459e-05 -3.7124895139174534e-05 7.2249941456414899e-06 -0.038851131586716103 -5.5590645333114138e-09 -2.3636349396162247e-09 -6.2934879588604772e-09 0.0000000000000000 -37.438273663334591 -155.10473791080037 114.93291110338620 89.036758072416930 0.0000000000000000 0.0000000000000000 0.0000000000000000 0.0000000000000000 3.4569568383933480 3.9697289121684243 1.5143947520192353 1.2181812006345023 1429.3244539520531 1429.3243580610433 1.2309293131030077 
-32.617770583689349 -149.16420210677555 110.38409086355242 -32.617770583689328 -149.16420210677555 110.38409086355247 -279.61048440623796 4.5280589507980578e-05 -9.8730122052520012e-05 -4.6564829574189084e-05 0.0000000000000000 1.1917064002275879e-09 3.5973402034983337e-10 1.2550177963532860e-05 -0.033934826701117880 -1.7583120947865093e-09 -6.4868548443442143e-09 1.5334498684349476e-09 0.0000000000000000 -31.542619574254449 -147.87907313389167 119.86135157363466 98.260374494724786 0.0000000000000000 0.0000000000000000 0.0000000000000000 0.0000000000000000 3.3878519001197374 3.8112477576173664 1.4239358343260209 1.1972535787484300 1243.2759312918790 1243.2763476816883 1.1929192362664454 
-29.648799063669223 -144.15775460288981 101.75846062458336 -29.648799063669227 -144.15775460288981 101.75846062458335 -279.88077689657115 4.7145068047683391e-05 -0.00014099590840664506 -7.5941029564338808e-05 0.0000000000000000 1.1096773500085535e-09 3.3320946002390878e-10 1.3727162915699864e-05 -0.032218172519713699 -8.9670462061981967e-09 -5.8086086278167475e-09 -2.1063269822388072e-09 0.0000000000000000 -28.647655777685479 -142.96738158566356 112.12452093910819 112.69127588814607 0.0000000000000000 0.0000000000000000 0.0000000000000000 0.0000000000000000 3.4045102413446058 3.8507219567902631 1.4473444318456365 1.1983418332110529 1262.3433975561300 1262.3450939923241 1.2030751716315777 
-25.150883687698389 -202.73113855563494 58.949364080062566 -25.150883687698386 -202.73113855563494 58.949364080062551 -1439.0796711416722 1.2409339671456854e-05 1.6770069916590874e-06 7.3714445562293279e-06 -1447.4122474299309 9.8540386961332140e-10 6.4353189443977509e-10 1.9568552001913986e-05 -0.014718955845015850 -1.5320134667727687e-08 -9.3222410965262511e-10 -4.1157711477571363e-09 -0.014009928540057004 -24.261860196399997 -200.43215969199997 73.726546483199982 142.71380061529433 0.0000000000000000 0.0000000000000000 0.0000000000000000 0.0000000000000000 3.3340736530889439 3.6923037237966758 1.3587228250994932 1.1654381298922802 3162.5579184260246 3162.5577927326940 1.1656436537550616 
-25.043750745090271 -189.69125346983225 60.714591905943074 -25.043750745090275 -189.69125346983222 60.714591905943067 -1413.0806341812049 3.8549149773451426e-05 -4.9293613686992788e-05 -1.6080603998202976e-05 -1423.6934102955754 9.8244323787355370e-10 5.7446092327495535e-10 1.9327683038028450e-05 -0.015723418105442605 -1.1382498819941590e-08 -2.0581904751437429e-09 -3.3082695382997971e-09 -0.016828024022526068 -24.157397762799999 -187.63907770800003 75.309882232799993 165.73632395326644 0.0000000000000000 0.0000000000000000 0.0000000000000000 0.0000000000000000 3.3342356278057688 3.6924675445979149 1.3587149842713762 1.1654381298922809 3119.2291283373092 3119.2289397678901 1.1656332006163850 
-36.046152761907479 -197.61344633897579 67.723609926989781 -36.046152761907479 -197.61344633897559 67.723609926989809 -1396.2749631695797 1.9891170507720129e-05 -3.8775014915342697e-05 -7.3077613511203759e-05 0.0000000000000000 1.2864371790044515e-09 6.1642957405183552e-10 1.8371288145857534e-05 -0.023227302293886205 -2.3495864288282714e-08 2.0928593214510221e-08 -5.0648805863120750e-08 0.0000000000000000 -34.885542273181727 -195.41132893576267 81.596679120775832 139.46796289390394 0.0000000000000000 0.0000000000000000 0.0000000000000000 0.0000000000000000 3.3310498731484621 3.6859962266662794 1.3554408484374225 1.1623367813826047 3084.6757604443442 3084.6765286062132 1.1642300917659609 
-19.572573596537278 -196.71480909088353 67.518779755625246 -19.572573596537271 -196.71480909088345 67.518779755625246 -1427.3707106921081 1.9821287242326504e-05 -2.5542615313721243e-05 -3.4526240863612571e-05 0.0000000000000000 8.3127943417693473e-10 6.1168003995248910e-10 1.8399237635691176e-05 -0.0054674645976404970 -5.3512250611473475e-10 1.0071146825603523e-09 -6.5559061861544069e-09 0.0000000000000000 -18.822600960987238 -194.52970000168264 81.412954998504986 111.95285379220412 0.0000000000000000 0.0000000000000000 0.0000000000000000 0.0000000000000000 3.3347806943612466 3.6936815887508918 1.3593919968729269 1.1654381298922809 3157.3154417117180 3157.3153716952788 1.1659354278323835 
-23.512156929356436 -103.63124585014673 24.959082773864104 -23.512156929356436 -103.63124585014671 24.959082773864107 -1344.8039806556403 -4.4633031351684992e-05 5.5667467872334524e-05 -7.6381736541087113e-05 -1361.6393813667235 9.4012519991082399e-10 1.1850365133625473e-10 2.4206595639952863e-05 0.12821111942920760 1.4413216777090920e-08 -2.4712700190346287e-08 3.1614914105106990e-08 0.13226533157526221 -22.663982073999996 -103.20790935200000 43.238681550399988 69.202643319072678 0.0000000000000000 0.0000000000000000 0.0000000000000000 0.0000000000000000 3.3334267279048815 3.6908904727348895 1.3579531493829191 1.1654381298922818 3001.4299516476863 3001.4299573652452 1.1653166210743502 
-31.191252805313972 -111.34239062155127 29.139962133481983 -31.191252805313976 -111.34239062155127 29.139962133481976 -1305.1452530154745 1.6339336096355625e-06 8.5331547566088066e-05 -0.00010308306387463737 -1295.5453120637117 1.1522974796562835e-09 1.5936407748995407e-10 2.3636106071478480e-05 0.11269687519722378 7.0558881649817004e-09 -3.9631928877448693e-08 3.8501276004037505e-08 0.10481927220232180 -30.151660686400003 -110.77310694400001 46.988755992800002 74.715282964229786 0.0000000000000000 0.0000000000000000 0.0000000000000000 0.0000000000000000 3.3350504515445247 3.6942223547612936 1.3596615300799366 1.1654381298922825 2925.4678551280085 2925.4678471654329 1.1660568054158269 
-19.482887334961177 -103.99731329803855 32.506521438199954 -19.482887334961173 -103.99731329803855 32.506521438199961 -1275.8759130860005 -5.5469668494910375e-05 4.5621205768361906e-05 -0.00010857819382655098 -1279.3235853830918 8.2880147189712261e-10 1.2043588348831236e-10 2.3176732145913093e-05 0.10117345689789249 2.1759700197926379e-08 -2.4036086221529650e-08 4.0381238523886469e-08 0.10028197236005700 -18.735150314000002 -103.56704831999998 50.008419303199993 79.719497061372692 0.0000000000000000 0.0000000000000000 0.0000000000000000 0.0000000000000000 3.3335968609750233 3.6912273709668160 1.3581194279855744 1.1654381298922807 2878.0721297346531 2878.0721114612606 1.1653842743651242 
-26.412347299284431 -98.819861648048459 33.592211439075598 -26.412347299284423 -98.819861648048516 33.592211439075612 -1294.9139191318052 3.5558591959304555e-06 1.9389810659438202e-05 -0.00016755955314207147 0.0000000000000000 1.0202587663599161e-09 9.3014262958490690e-11 2.3028587516904508e-05 0.11588882359405649 1.0825807294238606e-08 -2.3472977203820672e-08 5.2401894221307469e-08 0.0000000000000000 -25.491879232152165 -98.487589184379729 50.982237960580505 72.292163684038698 0.0000000000000000 0.0000000000000000 0.0000000000000000 0.0000000000000000 3.3333078075631968 3.6907557435637268 1.3579426904275895 1.1654381298922805 2907.4790428016427 2907.4790428251499 1.1653015477402320 
-26.398203534209486 -104.51735079823858 97.933365905234481 -26.398203534209493 -104.51735079823858 97.933365905234481 -259.12582554782415 4.5796898589015195e-05 0.00015122269597320353 -7.2454831457712926e-06 0.0000000000000000 -1.4795214226188306e-06 -1.6331289212871076e-05 2.8307066916833852e-05 -0.014598483203115447 4.5116059836053409e-09 -2.8308470079072315e-09 -1.5075331493608927e-08 0.0000000000000000 -25.283559732051039 -104.23282252886388 108.75695162467670 96.378087069502698 0.0000000000000000 0.0000000000000000 0.0000000000000000 0.0000000000000000 3.3925686358262905 3.8186083560112527 1.4261912516530086 1.2029143165249918 1179.7971175432501 1179.8755215499370 1.1938957600834561 
-27.078667304094175 -118.57087986843051 99.990659942607536 -27.078667304094186 -118.57087986843047 99.990659942607593 -173.37936239142573 5.4484590661385297e-05 -7.0771934361828734e-07 -4.6752097970681280e-05 0.0000000000000000 -5.0549568080353407e-06 -2.8451929850731219e-05 3.1819601420078413e-05 -0.019866703002560569 3.8332574504905103e-09 -9.5568997491258350e-09 -8.4976341342500951e-09 0.0000000000000000 -25.913646985361510 -118.01095136745833 110.66456878241424 88.846747377876298 0.0000000000000000 0.0000000000000000 0.0000000000000000 0.0000000000000000 3.4992284011935939 4.0587050057752956 1.5611810745321915 1.2344234951855169 1219.1162466374128 1219.1663050221757 1.2498052376214301 
-37.959509051752214 -112.81348291050028 101.58524098827394 -37.959509051752228 -112.81348291050021 101.58524098827398 -181.31078874814671 -5.7774666569119155e-05 6.1973334346229886e-05 3.5965988184199838e-05 0.0000000000000000 -1.2707200142550320e-05 -5.5192477621847355e-05 5.8437702825204864e-05 -0.016873728512095162 -4.5600790767893471e-09 -5.1450572428208126e-09 2.8192803726834393e-09 0.0000000000000000 -36.236867317722961 -112.72601430119678 112.03758904139967 95.996160021407249 0.0000000000000000 0.0000000000000000 0.0000000000000000 0.0000000000000000 3.5085506519198302 4.0810464170677356 1.5745913259428910 1.2460944943896399 1253.6215035890959 1253.6252597503794 1.2548695712404792 
-34.842666670309278 -105.02770538612059 94.204496087193434 -34.842666670309292 -105.02770538612052 94.204496087193505 -250.53648613915178 -7.2508226386333966e-08 0.00016953614028852092 -8.2201967631270650e-06 0.0000000000000000 -1.0851472871116777e-05 -4.2077160055640207e-05 7.4458634824911711e-05 -0.014316486094742443 5.6989839047247003e-09 -2.5474841069222734e-09 -2.5200134473942712e-09 0.0000000000000000 -33.380789828628046 -105.09637623893835 105.63342596379557 85.433794965156210 0.0000000000000000 0.0000000000000000 0.0000000000000000 0.0000000000000000 3.4724633209012254 3.9938428774768084 1.5222657985465113 1.2236202052304583 1255.9648858503060 1255.9598540436425 1.2337486402778379 
-115.35701933907268 -162.19524431137509 115.73876505767709 -115.35701933907264 -162.19524431137509 115.73876505767704 -759.09526801275740 9.8185369481018192e-06 -3.0563347929736825e-05 -6.6920991372162357e-05 -755.98888724307824 3.4777536406238592e-09 4.2876813211023540e-10 1.1819521681388778e-05 -0.028214213843771475 5.0122397706163143e-10 -1.5136542181013860e-09 -1.5736874898041246e-09 -0.028179623308282716 -112.21942232800005 -160.66347960400000 124.66427103520003 147.55923210393107 0.0000000000000000 0.0000000000000000 0.0000000000000000 0.0000000000000000 3.3549839214462831 3.7416307294083020 1.3874507214356144 1.1654381298922807 2019.3755332771250 2019.4396823633551 1.1782996180423793 
-102.34588519479811 -159.57689676568049 106.73117811763679 -102.34588519479807 -159.57689676568046 106.73117811763679 -791.42791792037576 -6.4646146174882315e-05 -5.1740389646150614e-05 -0.00012297130648772226 0.0000000000000000 3.1182536552876172e-09 4.1490277880029675e-10 1.3048625401523850e-05 -0.031058880041872600 2.3088584844253589e-09 -1.7045441235334967e-09 -1.2785593245009824e-09 0.0000000000000000 -99.532617471171264 -158.09468895943013 116.58484116745363 117.70414803503969 0.0000000000000000 0.0000000000000000 0.0000000000000000 0.0000000000000000 3.2876442422230530 3.5715527925947121 1.2828694542374770 1.1381232096882468 1933.2981751569027 1933.0111851046170 1.1322808030265288 
-107.27879315617872 -150.15893589811154 111.53287233724996 -107.27879315617878 -150.15893589811148 111.53287233724996 -728.15057981105394 -5.2289372392236100e-05 -5.9934398929762860e-05 -5.3747706799970093e-05 0.0000000000000000 3.2545526273963787e-09 3.6500003020023547e-10 1.2393424373868813e-05 -0.027753306255362657 1.9558093986068925e-09 -2.1764914627545930e-09 -2.1549855977528316e-09 0.0000000000000000 -104.34256255272837 -148.85497981259945 120.89176065121424 119.29379793442074 0.0000000000000000 0.0000000000000000 0.0000000000000000 0.0000000000000000 3.2855312604486935 3.5769945411030437 1.2913178584417997 1.1408730290366993 1828.4006052115726 1827.8101756754045 1.1359149888431370 
-103.36918527830071 -163.84606413709889 115.63122873034169 -103.36918527830072 -163.84606413709881 115.63122873034170 -749.70161290836870 -3.3068349501697117e-05 -7.6732323120466551e-05 -6.1191765483469964e-05 0.0000000000000000 3.1465337002600791e-09 4.3753045630978704e-10 1.1834195237980795e-05 -0.029471739249571149 2.2299960373505993e-09 -1.5790208920681395e-09 -2.7353815819734785e-09 0.0000000000000000 -100.53040969477119 -162.28305471776312 124.56781543385799 141.51484144144280 0.0000000000000000 0.0000000000000000 0.0000000000000000 0.0000000000000000 3.2897550635927462 3.5917208336016233 1.3019393204263492 1.1427434508428533 1876.5784046657786 1876.6186959239635 1.1407344793198648 
-80.673568208053211 -150.10028398129108 76.477138153538988 -80.673568208053211 -150.10028398129108 76.477138153539016 -836.70404600596828 -0.00015174221691240046 -0.00011228061696436953 -5.5013011840863742e-05 -840.06389984633836 2.5194712982568035e-09 3.6469893771595712e-10 1.7176851258682291e-05 -0.023696369691407128 4.2356036092265306e-09 3.8328663175060665e-09 1.3865958679860071e-09 -0.023583221180663048 -78.400527573600002 -148.79743798799998 89.448228916799977 108.06316173413846 0.0000000000000000 0.0000000000000000 0.0000000000000000 0.0000000000000000 3.3565765014533748 3.7406623682081421 1.3847834536536516 1.1654381298922813 2162.0813289863650 2158.8777030997890 1.1771474996298319 
-82.467111684409105 -164.10250738149421 74.609471397317549 -82.467111684409105 -164.10250738149426 74.609471397317535 -1072.7771488249125 -8.4072312209067129e-05 -0.00018733365110703171 -0.00010205655538841207 -1082.5348668804140 2.5690134464184666e-09 4.3888981338113813e-10 1.7431698211112234e-05 -0.022547408431374889 -2.6174128772706179e-09 2.9702315957224440e-09 1.0094521323432625e-09 -0.018988616693318063 -80.149363288800018 -162.53464431600008 87.773009718400019 109.57810873427631 0.0000000000000000 0.0000000000000000 0.0000000000000000 0.0000000000000000 3.3593577811120379 3.7447387741239950 1.3859194334485081 1.1654381298922807 2575.1333277218864 2601.6748284600103 1.1777168723820481 
-86.719219545068881 -161.70695636302250 82.636807235990887 -86.719219545068881 -161.70695636302244 82.636807235990958 -962.91609334110740 -5.6635168473864615e-05 -0.00012600883338996372 -0.00018440755099036001 0.0000000000000000 2.6865012436871893e-09 4.2618619744416719e-10 1.6336351762902268e-05 -0.021088265475618515 1.6519463099203916e-08 -8.9886712730746818e-09 5.9271429560262738e-09 0.0000000000000000 -84.295478612813938 -160.18443337667750 94.973195224810283 106.11323630727971 0.0000000000000000 0.0000000000000000 0.0000000000000000 0.0000000000000000 3.2729162200445350 3.5644413554492180 1.2918021920617881 1.1406987203650609 2210.9778815255709 2212.1957298172633 1.1358664086641612 
-88.953444262803288 -152.74301348241016 80.029428117330440 -88.953444262803274 -152.74301348241022 80.029428117330497 -917.33586262270740 -6.8264477829332277e-05 -0.00016480974396429138 -0.00017357772628710363 0.0000000000000000 2.7482340847484465e-09 3.7868819191544384e-10 1.6692133996798475e-05 -0.021344547051259929 2.6482035737912951e-09 1.9302384841950965e-09 -2.0539885555820751e-09 0.0000000000000000 -86.474010682800568 -151.39014911596544 92.634484883397832 94.367740677547317 0.0000000000000000 0.0000000000000000 0.0000000000000000 0.0000000000000000 3.3026105912719426 3.6274459286870666 1.3253403361902558 1.1463595390304151 2179.2467815143241 2179.6219459941999 1.1512572900854570 
-26.952591290092528 -133.41799908529654 131.32516803615852 -26.952591290092528 -133.41799908529654 131.32516803615857 -403.07337249452405 4.5392164545733343e-05 -3.8575607737436997e-05 0.00017980329325463265 -430.98117112359427 1.0351824952792299e-09 2.7631141819028926e-10 9.6927250154976718e-06 -0.022343416273786686 -2.0705131341948961e-09 3.7348201509767635e-10 3.0038782082945590e-09 -0.021594788988896167 -26.018656529999991 -132.43089511199997 138.64462455200004 49.421240865332216 0.0000000000000000 0.0000000000000000 0.0000000000000000 0.0000000000000000 3.3303574994860008 3.6831287993602397 1.3532625723943164 1.1744130190463593 1353.5909364379681 1353.6836362375357 1.1634707019585397 
-33.594956287960109 -134.97335518381445 130.16382709963887 -33.594956287960116 -134.97335518381445 130.16382709963892 -377.46064899733148 -2.4714746045676122e-06 3.5611968807493141e-05 9.0502953275788326e-05 -282.48633480252550 1.2187074682756815e-09 2.8456526024456252e-10 9.8511923596333872e-06 -0.024299075662043514 -2.3534201122124002e-09 -4.3936668182039647e-09 6.5187376468592062e-10 -0.020946926134852894 -32.495446914399992 -133.95681332000001 137.60295016000006 48.530522504776933 0.0000000000000000 0.0000000000000000 0.0000000000000000 0.0000000000000000 3.4027273099944937 3.8457009681642078 1.4439906918990877 1.2002067574592790 1438.9625531423769 1438.9465296998906 1.2014125102379891 
-29.413481364595473 -137.50320081625244 133.18188757398494 -29.413481364595484 -137.50320081625247 133.18188757398497 -402.64466187457424 4.8247816575860282e-05 4.7273605915903530e-05 5.7633507078797085e-05 -425.68189997761760 1.1031784374893050e-09 2.9795055311865331e-10 9.4393718157448331e-06 -0.024996847048294041 4.9788680595066954e-10 -4.0694899767232234e-09 -1.9101387257952185e-09 -0.025247955482749898 -28.418203856399998 -136.43877710800004 140.31002455199999 44.353383947079159 0.0000000000000000 0.0000000000000000 0.0000000000000000 0.0000000000000000 3.3444689905401508 3.7126382155678486 1.3685684448741957 1.1811156724334506 1379.2255058729281 1379.2192162933763 1.1698190307122744 
-27.721466036329542 -130.43233201919631 137.12667499070642 -27.721466036329538 -130.43233201919625 137.12667499070633 -441.94998909196164 2.8736502550772099e-05 3.4058971353535473e-05 3.0177743753226737e-05 0.0000000000000000 1.0564286112568766e-09 2.6049828960594823e-10 8.9010974733128023e-06 -0.022852295205466347 -1.4093321158011355e-09 -2.3670103370745520e-09 7.5663012483216137e-10 0.0000000000000000 -26.768365491316434 -129.50173712462359 143.84833436668455 49.139845408488213 0.0000000000000000 0.0000000000000000 0.0000000000000000 0.0000000000000000 3.3515201384118232 3.7337516515755298 1.3829412384745867 1.1821271192978413 1477.9316878050186 1477.9309693752703 1.1759058314084667 
-41.361877796911060 -65.171487923661218 148.39257964054812 -41.361877796911060 -65.171487923661203 148.39257964054815 -673.74857817444706 -1.9915013526651311e-05 -2.8429765686490596e-06 4.3240789621336469e-05 -680.88661165199824 1.4333032538615953e-09 -8.5266016469631722e-11 7.3638416608901025e-06 -0.018674657197762807 2.6759534005767518e-10 -8.2311621150320112e-10 2.0673733360386015e-09 -0.018889403337903784 -40.068761925200000 -65.476070995999990 153.95338104800004 156.95717166164070 0.0000000000000000 0.0000000000000000 0.0000000000000000 0.0000000000000000 3.3269665377044215 3.6780474209648446 1.3516365352509740 1.1610350955799833 1819.1594285179237 1819.1603911612658 1.1626229588073758 
-54.035797295944164 -59.238908542250506 143.16428022837343 -54.035797295944157 -59.238908542250520 143.16428022837343 -684.61315490472521 -2.6808177909113170e-05 -4.3705175985656177e-06 2.9561312641405813e-05 -688.63796535300764 1.7834800303262455e-09 -1.1669509802914035e-10 8.0772538417761552e-06 -0.017720748435938963 -7.0238156561938493e-10 -6.7885520466988722e-10 2.4490168136459858e-09 -0.017790701850356836 -52.426757905599978 -59.655776269200025 149.26381449600007 118.05125250056595 0.0000000000000000 0.0000000000000000 0.0000000000000000 0.0000000000000000 3.3395740002798817 3.7056694084809947 1.3666942049654056 1.1615371975551767 1861.0356866508228 1861.0351639236844 1.1691144550387931 
-36.340874291608927 -65.735869014847722 138.41018698615963 -36.340874291608934 -65.735869014847722 138.41018698615966 -649.82844145092872 -4.0016935343506003e-06 1.9449300951107451e-06 -2.2146054103490734e-07 -649.59238417555753 1.2945765570648859e-09 -8.2265527723279787e-11 8.7259596313060700e-06 -0.017219963476690039 4.0860987110865858e-10 -8.1667169930088644e-10 2.2863038336203840e-09 -0.017445339529058662 -35.172917262399999 -66.029770167599992 144.99959110400002 155.12084301790807 0.0000000000000000 0.0000000000000000 0.0000000000000000 0.0000000000000000 3.3364467932398418 3.6965029520437018 1.3605371736070899 1.1643930747703630 1795.3729624742334 1795.3705082030099 1.1664266746324665 
-51.970382932756458 -66.307037417245141 135.29285086693258 -51.970382932756451 -66.307037417245127 135.29285086693255 -663.76854378405221 -2.4609562614882655e-05 1.7905356470140958e-05 1.6412853581449658e-05 0.0000000000000000 1.7264103480130188e-09 -7.9243278605645173e-11 9.1513265374487656e-06 -0.016731265107464529 1.3732451801201486e-10 -1.3443014698153569e-09 2.1819411352568137e-09 0.0000000000000000 -50.412828244765279 -66.590128188430739 142.20347059834828 136.07757377940416 0.0000000000000000 0.0000000000000000 0.0000000000000000 0.0000000000000000 3.3056045227180406 3.6257762467325985 1.3201726186769343 1.1527666520518183 1757.7404526439475 1757.7422093237810 1.1489080731167005 
-97.245857890348717 -160.21095973170216 63.297749249505003 -97.245857890348731 -160.21095973170216 63.297749249505010 -1290.8904053482836 -3.5335753804518425e-05 -5.5242575349755527e-05 -7.9264087234176512e-05 -1293.3040483096936 2.9773516985187594e-09 4.1826497820807168e-10 1.8975205914983917e-05 -0.017084946886030319 4.9183076090053269e-09 -4.6218207926965278e-09 3.6843414311850943e-09 -0.016515884826673655 -94.559718839999974 -158.71675115199997 77.626866652000004 109.98746742214213 0.0000000000000000 0.0000000000000000 0.0000000000000000 0.0000000000000000 3.3322808383092357 3.6885094999605403 1.3567209486316876 1.1654381298922813 2903.4707146975193 2896.1096483759825 1.1647679430379621 
-92.243586623427646 -159.95578412178909 68.661975385604876 -92.243586623427674 -159.95578412178912 68.661975385604848 -1186.8274456075001 -0.00012898190455542407 -0.00012607943185976285 -0.00016084025602996954 -1156.2608310117414 2.8391338169342362e-09 4.1691272656407818e-10 1.8243246255877924e-05 -0.019329547700459523 3.3955387850243294e-09 -4.3500242430311154e-09 8.5129758049041400e-10 -0.020322592029142626 -89.682139475999989 -158.46640519600001 82.438353807199988 112.88451412247700 0.0000000000000000 0.0000000000000000 0.0000000000000000 0.0000000000000000 3.3367415166560837 3.6966362692723185 1.3603423924900184 1.1654381298922798 2715.2919125625076 2748.3327270835312 1.1662645188129301 
-105.60435846965082 -156.36546436014626 73.311725784485390 -105.60435846965082 -156.36546436014629 73.311725784485390 -1167.7596024826978 -3.1771179099030946e-05 -3.0575911910119714e-05 -0.00017469385286541695 0.0000000000000000 3.2082825285328909e-09 3.9788750072489165e-10 1.7608778264843753e-05 -0.016504390668195104 2.5376299806180201e-09 -5.5617603562655004e-09 7.3361418162831041e-09 0.0000000000000000 -102.70986659571734 -154.94403864466588 86.608986019839278 111.02505284862640 0.0000000000000000 0.0000000000000000 0.0000000000000000 0.0000000000000000 3.3390066209179889 3.7031450090103415 1.3646408182567449 1.1612068964799545 2712.4743801040836 2708.0571000440109 1.1683122208147048 
-103.24268703128205 -168.83127674559501 70.035195678897821 -103.24268703128202 -168.83127674559509 70.035195678897765 -1250.4418457427817 -1.6554720166702858e-05 -3.9770375587248558e-05 -0.00016919235317709114 0.0000000000000000 3.1430293923051526e-09 4.6393910935194077e-10 1.8055867521127315e-05 -0.019710072915000539 1.8873192343146135e-09 -4.3056531064502643e-09 -3.9565645708188022e-09 0.0000000000000000 -100.40706467681501 -167.17391327890167 83.670075146830683 105.53983917324770 0.0000000000000000 0.0000000000000000 0.0000000000000000 0.0000000000000000 3.3328669727188283 3.6898016080943714 1.3574256354954251 1.1619997871595993 2825.5046764093845 2833.2119356098278 1.1651009217129031 
-117.82313219166475 -100.16355570013536 84.419575332352053 -117.82313219166478 -100.16355570013538 84.419575332352025 -933.08213914240525 -2.9385221910896753e-05 -4.3799456065445363e-05 -0.00012615797877875158 -947.64719877980190 3.5458792653969575e-09 1.0013478934922661e-10 1.6093089392654747e-05 0.0053676837444522766 -1.8231203381245573e-10 -5.9456657428927816e-09 1.2262973482971690e-08 0.0058254712797452387 -114.62406224400000 -99.805851428000011 96.572263865600007 85.211636250682801 0.0000000000000000 0.0000000000000000 0.0000000000000000 0.0000000000000000 3.3445311814436072 3.7115759550124867 1.3670413470091238 1.1506267843501017 2296.0454543822639 2295.9957325428768 1.1691063023536066 
-114.19622391287265 -91.287348174029006 88.487774096658313 -114.19622391287270 -91.287348174029006 88.487774096658313 -869.08241125088625 -1.2127249553246927e-05 -2.0333616678107357e-06 -0.00013475174506863503 -860.51742116460639 3.4456788533532294e-09 5.3101745223216312e-11 1.5537975336599175e-05 0.0049062545245326600 -6.9743481826353769e-10 -5.8062965808347995e-09 1.7972486061732459e-08 0.0034653985367575058 -111.08756211600000 -91.097641973600034 100.22126851279998 99.535403830130534 0.0000000000000000 0.0000000000000000 0.0000000000000000 0.0000000000000000 3.3625124922554854 3.7542558883891011 1.3925217706255659 1.1592088111540064 2218.4372687350738 2218.4560076674898 1.1803197101314018 
-116.05945470986910 -97.972030636371059 97.591366540037228 -116.05945470986904 -97.972030636371059 97.591366540037214 -780.12291873407935 -1.2978659445087887e-05 -1.0468299497463173e-05 -0.00012374989949042359 -779.16361797184368 3.4971603390943073e-09 8.8521634467042531e-11 1.4295771457284445e-05 -0.0059323162344944586 -1.2192772157642705e-09 -5.5491629103786777e-09 7.2725821963462820e-09 -0.0065542541511714311 -112.90434805199999 -97.655804887999992 108.38681131359999 128.09762094244454 0.0000000000000000 0.0000000000000000 0.0000000000000000 0.0000000000000000 3.3383810105518639 3.7048938689409279 1.3671490170648894 1.1597148826972741 2032.8193912538411 2032.8227630480114 1.1692697586438983 
-110.16278636740476 -104.27675522250466 88.854453904586222 -110.16278636740479 -104.27675522250459 88.854453904586222 -854.66567591665557 -0.00014495766855717436 -1.3713965939413519e-05 -0.00014186372183412448 0.0000000000000000 3.3342382188550346e-09 1.2192558074275439e-10 1.5487941109171288e-05 -0.0025873549222499492 9.4285030644188144e-09 -5.1979707681975684e-09 9.2739361597031176e-09 0.0000000000000000 -107.15466629968294 -103.84120130723400 100.55016500991876 102.24201981555134 0.0000000000000000 0.0000000000000000 0.0000000000000000 0.0000000000000000 3.2916102607173383 3.5860376558603226 1.2939336267363550 1.1368826121694005 2047.7794281023821 2047.8146420600247 1.1371914585037499 
-27.957407434877375 -115.86959762086826 91.622630993313763 -27.957407434877378 -115.86959762086826 91.622630993313749 -223.05813693925782 0.00010006701244375332 3.4815386240873511e-05 -0.00012606470908983544 0.0000000000000000 -9.5734355712584163e-06 -2.9866185857235101e-05 4.9759162543059723e-05 -0.021126571402534686 -4.6972306322190673e-10 -9.5752014665591271e-09 -5.2543780417807000e-09 0.0000000000000000 -26.889884864405381 -115.37486796036181 103.37575244326078 96.382960025775517 0.0000000000000000 0.0000000000000000 0.0000000000000000 0.0000000000000000 3.4506357755491721 3.9503903720661104 1.5009393440733596 1.2234104652523325 1212.4925417772802 1212.5158435908265 1.2250582632735527 
-112.63815796559680 -104.05309409315642 146.43492882864544 -112.63815796559676 -104.05309409315645 146.43492882864544 -689.51923302698697 2.3211415701351483e-06 7.7426419791302492e-06 1.0378932428685881e-06 -692.79580184567214 3.4026266249043143e-09 1.2073453348193652e-10 7.6309671399599227e-06 -0.021853696154464593 -1.5148134277254328e-10 -9.8721574460199584e-10 7.7750663243765186e-10 -0.021750000450379427 -109.56833416800004 -103.62177336400003 152.19744990400002 70.302883591683823 0.0000000000000000 0.0000000000000000 0.0000000000000000 0.0000000000000000 3.3226677300991811 3.6651934297814610 1.3428393615159209 1.1592980619655597 1836.7826245177030 1836.7701830577141 1.1588482925110990 