# For a description of the Tecplot format see the Tecplot User's guide.
#
Variables=x,y,z,s_u,s_v,s_w,s_p,mono_f_vel_u,mono_f_vel_v,mono_f_vel_w,const,u_nu,v_nu,w_nu,p_nu,x_nu,y_nu,z_nu,const,u_ref,v_ref,w_ref,vol_ref,x_ref,y_ref,z_ref,const,I1,I2,I3,J,p1,p2,p3
Zone f=fepoint, n=3174, e=16683, et=brick, c=black
-25.3690 -154.886 107.135 -25.368953425261950 -154.88588421356795 107.13488232542885 -282.95133998873484 -2.7216955919920841e-05 -0.00010777351754113232 -0.00011329621412479722 -270.68057413240501 3.8580250105724190e-15 6.6613381477509392e-16 5.7005067333193448e-10 0.024949047831871792 -1.6877799062227903e-10 -8.8319259108610850e-10 2.7482222056860721e-10 0.024757634068495942 -24.903554063199991 -154.16086777200002 112.24023381839994 89.724962256112903 0.0000000000000000 0.0000000000000000 0.0000000000000000 0.0000000000000000 3.1694061420219679 3.3435711574394706 1.1741222807621592 1.0856290035565999 821.35350552823502 821.36960819180229 1.0834956723885898 
-38.116412629053130 -156.18745716404561 109.85916456506024 -38.116412629053123 -156.18745716404558 109.85916456506027 -234.37426605669157 8.7672340222244010e-05 -8.7840288451031519e-05 -5.7043656042737620e-05 0.0000000000000000 4.7870774762569005e-08 -8.9229050446944025e-07 2.0719478171453679e-06 0.025754455538284812 2.1216954533353908e-09 -1.8910493521669243e-09 1.3961665361936859e-09 0.0000000000000000 -37.438273663334591 -155.10473791080037 114.93291110338620 89.036758072416930 0.0000000000000000 0.0000000000000000 0.0000000000000000 0.0000000000000000 3.2285860600373435 3.4714180080225243 1.2430461108066446 1.1087232899743207 853.45222055586157 853.45349481060464 1.1150112033583310 
-32.095258352597412 -148.54161204697530 115.18774638498904 -32.095258352597405 -148.54161204697536 115.18774638498907 -201.16546803980600 2.7152219800370078e-05 -6.2382087171443404e-05 -2.1461032023775704e-05 0.0000000000000000 -2.4980018054066022e-16 -8.6597395920762210e-15 5.2185100685164798e-10 0.025263921926839079 4.2060899156325432e-10 -5.5529006144159256e-11 -2.8969084596999939e-10 0.0000000000000000 -31.542619574254449 -147.87907313389167 119.86135157363466 98.260374494724786 0.0000000000000000 0.0000000000000000 0.0000000000000000 0.0000000000000000 3.1921575843117864 3.3932944110737919 1.2012056153339332 1.0983719257551396 745.95971478130275 745.95797542121852 1.0958890747873549 
-29.162253818013880 -143.58106975365138 107.01261415994399 -29.162253818013863 -143.58106975365129 107.01261415994396 -199.96495876667791 3.0266818762113021e-05 -8.1748145071992550e-05 -5.1229301076952927e-05 0.0000000000000000 2.5257573810222311e-15 -4.6629367034256567e-15 5.7078253234976728e-10 0.025567742914553292 2.6258868419291869e-09 -3.1087151725272416e-11 6.7761158311544985e-10 0.0000000000000000 -28.647655777685479 -142.96738158566356 112.12452093910819 112.69127588814607 0.0000000000000000 0.0000000000000000 0.0000000000000000 0.0000000000000000 3.2014262878429922 3.4135786111835666 1.2123055084295336 1.0988480976353960 754.92433929995366 754.92673906082302 1.1010499674615344 
-24.718827498516532 -201.61738155661718 66.439344150632110 -24.718827498516532 -201.61738155661718 66.439344150632110 -821.94032051229897 4.9870667905603590e-06 4.4541174048324048e-07 3.2433620163414276e-06 -826.15522614040958 3.9690473130349346e-15 4.4408920985006262e-15 8.1367979021251813e-10 0.024635648621724703 -6.1291517771565316e-12 -8.5963264364856744e-13 -1.5808895234794872e-12 0.024635657391034013 -24.261860196399997 -200.43215969199997 73.726546483199982 142.71380061529433 0.0000000000000000 0.0000000000000000 0.0000000000000000 0.0000000000000000 3.1631566956372841 3.3322771887400080 1.1691824653244838 1.0811833884977711 1767.3469355721152 1767.3407452573133 1.0812877696508674 
-24.612992395567904 -188.69706202505253 68.112377944580913 -24.612992395567908 -188.69706202505250 68.112377944580899 -808.40397635617228 1.8282259562319526e-05 -2.4643386337246341e-05 -7.7570798719860075e-06 -813.32722984437817 2.2482016248659416e-15 -1.0436096431476473e-14 8.0366113763830072e-10 0.024637406748326835 -2.4762562961294903e-12 -2.3662472840478053e-12 -1.4745845130306187e-12 0.024637278307954757 -24.157397762799999 -187.63907770800003 75.309882232799993 165.73632395326644 0.0000000000000000 0.0000000000000000 0.0000000000000000 0.0000000000000000 3.1631823332163083 3.3322878421256048 1.1691662625829518 1.0811833884977713 1744.7488792924692 1744.7334000532405 1.0812783709305271 
-35.482108110903951 -196.54661457758689 74.755330111822090 -35.482108110903944 -196.54661457758701 74.755330111822047 -800.65203546544149 8.2742185048428619e-06 -1.9279299727494112e-05 -3.8056483953019663e-05 0.0000000000000000 4.4131365228849972e-15 -2.4424906541753448e-15 7.6388850800412911e-10 0.024635035091327591 -7.3802005568236010e-12 1.5411385027264808e-12 -2.0279693506447412e-11 0.0000000000000000 -34.885542273181727 -195.41132893576267 81.596679120775832 139.46796289390394 0.0000000000000000 0.0000000000000000 0.0000000000000000 0.0000000000000000 3.1616938309569496 3.3292858530985265 1.1676540760009073 1.0796985221642703 1728.5082400115007 1728.5601632423422 1.0805790666607102 
-19.208094679975481 -195.65621713068307 74.561197777350046 -19.208094679975485 -195.65621713068316 74.561197777350074 -815.39996029587098 9.2926956567201189e-06 -1.2317722356999492e-05 -1.7826650011545066e-05 0.0000000000000000 2.1371793224034263e-15 -4.4408920985006262e-15 7.6505557444761507e-10 0.024639719298631867 1.0311280038687523e-12 -2.7162185648746832e-12 -2.3764593589040134e-12 0.0000000000000000 -18.822600960987238 -194.52970000168264 81.412954998504986 111.95285379220412 0.0000000000000000 0.0000000000000000 0.0000000000000000 0.0000000000000000 3.1634610176185061 3.3328761520812553 1.1694768660888075 1.0811833884977695 1763.8988870619066 1763.8981751069300 1.0814250096243974 
-23.099952753255337 -103.42615741057530 34.224301730976819 -23.099952753255337 -103.42615741057531 34.224301730976826 -789.03866859318816 -2.4866043600880023e-05 2.9253668468834674e-05 -3.9928192486376347e-05 -797.32318179818424 7.4940054162198066e-16 -2.4424906541753440e-15 1.0065352995525245e-09 0.024646836320881747 4.8951760310248666e-11 -7.7431537007872174e-11 9.8842100360943338e-11 0.024658901394328744 -22.663982073999996 -103.20790935200000 43.238681550399988 69.202643319072678 0.0000000000000000 0.0000000000000000 0.0000000000000000 0.0000000000000000 3.1628347382659339 3.3316035054893041 1.1688302985515084 1.0811833884977697 1711.7333589020270 1711.7333587300379 1.0811256906078530 
-30.686021825932905 -111.06659701147136 38.186822803051314 -30.686021825932908 -111.06659701147139 38.186822803051314 -767.71044329782990 1.8806813177466118e-06 4.5807106430597053e-05 -5.4137160680447280e-05 -761.09219707648788 2.7478019859472624e-15 3.7747582837255322e-15 9.8280672489181597e-10 0.024595434431108718 2.4156447248850480e-11 -1.2294212573453475e-10 1.3299718923372529e-10 0.024590961430734203 -30.151660686400003 -110.77310694400001 46.988755992800002 74.715282964229786 0.0000000000000000 0.0000000000000000 0.0000000000000000 0.0000000000000000 3.1636321802589014 3.3332213484965298 1.1696507725918932 1.0811833884977702 1671.0471441935090 1671.0471446616673 1.0815071131069129 
-19.119494903885080 -103.78886830608896 41.377553995675981 -19.119494903885080 -103.78886830608896 41.377553995675974 -751.95475663591162 -3.0402379780388125e-05 2.3816969249582301e-05 -5.7464626003297726e-05 -753.49260995771158 3.7747582837255330e-15 1.1102230246251565e-15 9.6370911251142388e-10 0.024561909612988764 7.6255539417802743e-11 -9.8044396382255021e-11 1.2977233135829824e-10 0.024555816104587094 -18.735150314000002 -103.56704831999998 50.008419303199993 79.719497061372692 0.0000000000000000 0.0000000000000000 0.0000000000000000 0.0000000000000000 3.1629020190719004 3.3317369117370679 1.1688963630569069 1.0811833884977700 1645.3968980997997 1645.3968993325982 1.0811551211863522 
-25.965009372625218 -98.658889841023310 42.406540755677476 -25.965009372625218 -98.658889841023267 42.406540755677490 -762.90630887165389 1.2926928648281849e-06 1.0731824606057722e-05 -8.8893470137230826e-05 0.0000000000000000 2.8588242884097781e-15 2.2204460492503131e-15 9.5755048334922342e-10 0.024618642103261111 2.9887276582891208e-11 -8.1302694940272821e-11 1.3986883800554975e-10 0.0000000000000000 -25.491879232152165 -98.487589184379729 50.982237960580505 72.292163684038698 0.0000000000000000 0.0000000000000000 0.0000000000000000 0.0000000000000000 3.1627633092771537 3.3314837169877354 1.1687825493178865 1.0811833884977697 1662.3587075541518 1662.3587070973347 1.0811008889969855 
-25.868108526147378 -104.36646814919681 103.41512349192267 -25.868108526147360 -104.36646814919685 103.41512349192270 -192.00583497471868 2.6349776199045201e-05 8.7635064441243151e-05 -1.0480218345949932e-05 0.0000000000000000 1.7695269834673609e-07 6.3797184808004940e-07 2.7464903745721063e-06 0.023808485688002052 -1.8794937127758426e-09 -3.1551272127694373e-10 6.3099605655212044e-09 0.0000000000000000 -25.283559732051039 -104.23282252886388 108.75695162467670 96.378087069502698 0.0000000000000000 0.0000000000000000 0.0000000000000000 0.0000000000000000 3.1938727769665056 3.3958640931541444 1.2019848076168629 1.1012284632696521 713.71563182599618 713.71563110508805 1.0962429449929088 
-26.526148829756504 -118.28065879487211 105.39505346109426 -26.526148829756497 -118.28065879487211 105.39505346109432 -136.19127145437531 3.7333218233050097e-05 4.2755896059080630e-06 -3.1175383518333443e-05 0.0000000000000000 -2.4472384088636195e-07 2.3142188581156367e-06 4.2993947546798770e-06 0.024288117838172963 -1.9551290170830032e-09 2.4879949126090550e-09 4.3467603595735772e-09 0.0000000000000000 -25.913646985361510 -118.01095136745833 110.66456878241424 88.846747377876298 0.0000000000000000 0.0000000000000000 0.0000000000000000 0.0000000000000000 3.2537885872377967 3.5235404510068196 1.2699814252826487 1.1186574420942148 729.45568563663608 729.46107078404384 1.1270441097837218 
-37.153461214262883 -112.72980796526274 106.88777395704467 -37.153461214262883 -112.72980796526278 106.88777395704471 -140.62376631279653 -2.9335005637785614e-05 4.6090243710776685e-05 2.8300863893775082e-05 0.0000000000000000 9.6646051811515488e-07 2.8606829079460675e-06 5.2806482415415673e-06 0.023288822179661710 1.3168568460038534e-09 3.8767993016349876e-10 -7.2296060066053312e-10 0.0000000000000000 -36.236867317722961 -112.72601430119678 112.03758904139967 95.996160021407249 0.0000000000000000 0.0000000000000000 0.0000000000000000 0.0000000000000000 3.2599021221336963 3.5368578122945999 1.2772443562725075 1.1251231517611981 750.26964720818069 750.27021024282044 1.1301677183641550 
-34.155977541295755 -105.02566948895735 99.979199371455664 -34.155977541295776 -105.02566948895732 99.979199371455692 -187.94522154837659 1.2126903469789511e-06 9.9497734445316372e-05 -1.4681136287023027e-05 0.0000000000000000 2.1142410408352437e-07 1.1472285366506854e-06 4.4089644166070297e-06 0.024256115407847154 -1.8429393913955701e-09 -6.8368209067160403e-10 3.6251421001730077e-09 0.0000000000000000 -33.380789828628046 -105.09637623893835 105.63342596379557 85.433794965156210 0.0000000000000000 0.0000000000000000 0.0000000000000000 0.0000000000000000 3.2352975415651555 3.4828322176314925 1.2476279252387676 1.1118635551519369 759.29979756581940 759.30062681989500 1.1169546520518905 
-113.83217975827307 -161.45316977964580 120.26275752576777 -113.83217975827303 -161.45316977964580 120.26275752576773 -483.36704670094838 4.6857559377634958e-06 -1.4713840393252731e-05 -3.5633413730694658e-05 -481.60603949223520 1.4460654895742664e-14 8.6597395920762210e-15 4.9146464675686740e-10 0.023955244091445584 -2.5014366731261572e-11 7.2748555073489033e-11 2.9298137453865891e-10 0.023927334046466967 -112.21942232800005 -160.66347960400000 124.66427103520003 147.55923210393107 0.0000000000000000 0.0000000000000000 0.0000000000000000 0.0000000000000000 3.1750547254058641 3.3580690795178492 1.1831169570298636 1.0811833884977711 1201.7151912222996 1201.7151706339034 1.0878268018059278 
-100.97866628133231 -158.85883043443985 111.72561737214350 -100.97866628133228 -158.85883043443988 111.72561737214347 -499.86422062705986 -3.2522875519474307e-05 -2.5092506503464458e-05 -6.7105284836545804e-05 0.0000000000000000 1.3600232051658168e-15 2.4424906541753444e-15 5.4257398574009130e-10 0.024212382126856401 -1.0186975007569089e-10 -9.2025922075362011e-11 1.8043591330477747e-10 0.0000000000000000 -99.532617471171264 -158.09468895943013 116.58484116745363 117.70414803503969 0.0000000000000000 0.0000000000000000 0.0000000000000000 0.0000000000000000 3.1345500073593784 3.2675808485043656 1.1328915122879610 1.0673711698576247 1146.3086175134006 1146.3091340241047 1.0642746624454988 
-105.85181555940773 -149.52722490693054 116.27652948662615 -105.85181555940774 -149.52722490693046 116.27652948662623 -467.73918583048066 -2.7442963265383900e-05 -2.8458099789443074e-05 -3.0645897791333723e-05 0.0000000000000000 2.4702462297909733e-15 4.2188474935755956e-15 5.1532467182369146e-10 0.024015654556789071 -2.3391568713095262e-10 1.4540989059023469e-10 2.7326562088248747e-10 0.0000000000000000 -104.34256255272837 -148.85497981259945 120.89176065121424 119.29379793442074 0.0000000000000000 0.0000000000000000 0.0000000000000000 0.0000000000000000 3.1354361306481353 3.2720009034822555 1.1365434932208229 1.0685725329093005 1094.5254845634563 1094.5254347117077 1.0659630491081142 
-101.98956980968022 -163.08885287785162 120.16083758825515 -101.98956980968022 -163.08885287785151 120.16083758825515 -477.39983340504955 -1.7595777130808612e-05 -3.8289256612958278e-05 -3.2485230695752613e-05 0.0000000000000000 3.8025138593411612e-15 1.9984014443252818e-15 4.9207216079594229e-10 0.024028774524378311 -1.7493802330305700e-10 6.1463777945461808e-11 3.0433894480242596e-10 0.0000000000000000 -100.53040969477119 -162.28305471776312 124.56781543385799 141.51484144144280 0.0000000000000000 0.0000000000000000 0.0000000000000000 0.0000000000000000 3.1385711304301602 3.2798957198243097 1.1413177064426849 1.0695550421447173 1117.5766849084027 1117.5764813995529 1.0682409961362012 
-79.568894052657086 -149.46911078234487 83.051680489143266 -79.568894052657100 -149.46911078234487 83.051680489143251 -518.77755570491820 -7.9745283013594524e-05 -5.7437341008836111e-05 -2.7711470559092755e-05 -519.63629734072879 1.1379786002407855e-15 2.2204460492503131e-15 7.1423400527237391e-10 0.024724079686189008 -2.6328088176596008e-10 1.3816401305624032e-13 -5.7813637904270341e-11 0.024846168987207925 -78.400527573600002 -148.79743798799998 89.448228916799977 108.06316173413846 0.0000000000000000 0.0000000000000000 0.0000000000000000 0.0000000000000000 3.1742145760209834 3.3552819008981980 1.1811563520608299 1.0811833884977700 1264.2900928238575 1264.2719949401401 1.0869056256261405 
-81.340710021133901 -163.34294473813236 81.281557928654735 -81.340710021133887 -163.34294473813230 81.281557928654735 -643.91132278175485 -4.5802671028154184e-05 -9.4432703146361442e-05 -5.1401885730862100e-05 -648.38135075747073 6.9111383282915995e-15 -8.6597395920762210e-15 7.2482464474887820e-10 0.024583531364166369 -1.3200471746404883e-10 -8.1687356380591167e-11 -8.9600257501417506e-11 0.024579616405318753 -80.149363288800018 -162.53464431600008 87.773009718400019 109.57810873427631 0.0000000000000000 0.0000000000000000 0.0000000000000000 0.0000000000000000 3.1756785376884715 3.3578296761249167 1.1822197352449888 1.0811833884977704 1484.7831843347233 1484.9363748822336 1.0874260201146806 
-85.541306609129762 -160.96935905013285 88.889643376082972 -85.541306609129748 -160.96935905013285 88.889643376082901 -586.55230333491636 -3.2365247885382244e-05 -6.4643921847482705e-05 -9.4997685802672028e-05 0.0000000000000000 1.1796119636642288e-14 1.4432899320127038e-14 6.7927530267297698e-10 0.024607316249438779 -7.3957411034722555e-11 -5.2909183577284039e-11 3.3146096139762328e-11 0.0000000000000000 -84.295478612813938 -160.18443337667750 94.973195224810283 106.11323630727971 0.0000000000000000 0.0000000000000000 0.0000000000000000 0.0000000000000000 3.1325160921068540 3.2694172549566463 1.1369311568109775 1.0688261168236708 1291.2053153420827 1291.1179858759272 1.0660932607039333 
-87.748465278118687 -152.08760851950106 86.418442030172017 -87.748465278118658 -152.08760851950100 86.418442030172002 -563.09217057996807 -3.7355192038939015e-05 -8.4033322781969461e-05 -9.1008369107926319e-05 0.0000000000000000 8.9095397726168812e-15 -5.3290705182007514e-15 6.9406880243150226e-10 0.024699835763881541 6.4061103565386834e-11 -2.3551697920151880e-10 3.0004358236761731e-11 0.0000000000000000 -86.474010682800568 -151.39014911596544 92.634484883397832 94.367740677547317 0.0000000000000000 0.0000000000000000 0.0000000000000000 0.0000000000000000 3.1480625686012558 3.3015541354294857 1.1535542112949491 1.0716658128653931 1276.3842214981225 1276.3913908171633 1.0740368855111520 
-26.498708690431712 -132.93978939994128 135.03511638324079 -26.498708690431723 -132.93978939994125 135.03511638324082 -275.59458045640230 2.6728746476623016e-05 -2.2793889084140105e-05 0.00010428754737070433 -292.43575370614087 2.5257573810222311e-15 8.8817841970012523e-16 4.0302694515048643e-10 0.023286817451070575 4.0110914231095871e-10 -6.7242355491253054e-11 -1.5129695479030890e-10 0.023095045816273477 -26.018656529999991 -132.43089511199997 138.64462455200004 49.421240865332216 0.0000000000000000 0.0000000000000000 0.0000000000000000 0.0000000000000000 3.1611728494419564 3.3279141826054492 1.1668054925956852 1.0862334837843952 812.59458848496502 812.59222334372612 1.0802452220143690 
-33.060606144730130 -134.48088409870505 133.93442977236415 -33.060606144730137 -134.48088409870510 133.93442977236415 -261.06243903029764 -2.2038919360807842e-06 1.8683283422426337e-05 5.7129644080720366e-05 -210.37705893248918 5.4123372450476381e-15 -4.6629367034256575e-15 4.0963499259305541e-10 0.023652420054223165 4.4601256344770893e-10 6.2725634841203257e-10 7.6485213279417100e-10 0.022899179547949129 -32.495446914399992 -133.95681332000001 137.60295016000006 48.530522504776933 0.0000000000000000 0.0000000000000000 0.0000000000000000 0.0000000000000000 3.2010921516153119 3.4123428880686988 1.2113808058143833 1.1001987940667417 865.60863563733426 865.60823784507022 1.1005302747026702 
-28.929786826061598 -136.98753302402571 136.79486347487705 -28.929786826061605 -136.98753302402568 136.79486347487705 -276.77183818017193 3.0444193996101483e-05 2.3106320402288758e-05 3.3146174674807547e-05 -291.64207852004438 2.1926904736346846e-15 -1.0436096431476470e-14 3.9250025452020049e-10 0.023505908677453863 2.2972155678175726e-10 1.9996098879137618e-10 5.4144439955735973e-10 0.023444997223318980 -28.418203856399998 -136.43877710800004 140.31002455199999 44.353383947079159 0.0000000000000000 0.0000000000000000 0.0000000000000000 0.0000000000000000 3.1692660849596708 3.3444369782697354 1.1752209045103510 1.0901414869867552 832.27057776090271 832.27100231366978 1.0840513041481601 
-27.258269064127933 -129.98149856723418 140.53362317566925 -27.258269064127941 -129.98149856723418 140.53362317566919 -298.88844213862529 1.4391729995184355e-05 1.7534613515543949e-05 1.9284132328824724e-05 0.0000000000000000 4.0800696154974503e-15 7.3274719625260332e-15 3.7012171105743614e-10 0.023253258056794401 1.9305196527088569e-10 1.1819584480358156e-10 1.1882519611492145e-10 0.0000000000000000 -26.768365491316434 -129.50173712462359 143.84833436668455 49.139845408488213 0.0000000000000000 0.0000000000000000 0.0000000000000000 0.0000000000000000 3.1733242934759507 3.3543674357433901 1.1811336816143863 1.0905811876172569 886.70726696231975 886.69723034051287 1.0867713259218279 
-40.733436905111802 -65.319045404056354 151.21113398886331 -40.733436905111816 -65.319045404056368 151.21113398886334 -436.52878457515749 -1.2363462984418541e-05 -8.9593115114100621e-07 2.2710365871542265e-05 -440.41205832010598 3.6914915568786447e-15 -1.7763568394002505e-15 3.0618352298006357e-10 0.023207563817621700 1.8024014528164542e-12 4.9954292333063823e-12 -2.6645934447448982e-11 0.023196403282042807 -40.068761925200000 -65.476070995999990 153.95338104800004 156.95717166164070 0.0000000000000000 0.0000000000000000 0.0000000000000000 0.0000000000000000 3.1592394037259366 3.3244173741001073 1.1652487649605854 1.0788782332280646 1089.2018898429085 1089.1978507913793 1.0794731224118428 
-53.253820853206648 -59.440863138657946 146.25589734846659 -53.253820853206655 -59.440863138657953 146.25589734846656 -443.48381392705340 -1.4088777532445980e-05 -2.9896990627606666e-06 1.6736840608738921e-05 -445.47581957661197 3.4694469519536142e-15 -8.8817841970012513e-16 3.3585223491172655e-10 0.023224169955346045 1.9611834194783366e-11 -2.6650241780903890e-11 5.9838760335819617e-11 0.023219584451028046 -52.426757905599978 -59.655776269200025 149.26381449600007 118.05125250056595 0.0000000000000000 0.0000000000000000 0.0000000000000000 0.0000000000000000 3.1663666066884959 3.3393398329375734 1.1730498276636359 1.0792066147864299 1115.4843302616246 1115.4843334859322 1.0830902395811282 
-35.773259298183746 -65.878251561758006 141.75010011527380 -35.773259298183746 -65.878251561758006 141.75010011527382 -423.10043270192273 -3.3175180733114212e-06 1.8898154269521579e-06 5.7936985573551061e-07 -422.86114378424003 3.6359804056473877e-15 -2.6645352591003753e-15 3.6283154258853756e-10 0.023206101886765730 2.9719990517147150e-11 -3.7998080091526748e-11 7.8421826058006254e-11 0.023179625466028510 -35.172917262399999 -66.029770167599992 144.99959110400002 155.12084301790807 0.0000000000000000 0.0000000000000000 0.0000000000000000 0.0000000000000000 3.1645864061157591 3.3350153361592256 1.1704898533111883 1.0807656301960453 1077.4000570892754 1077.3969626733654 1.0818938944596064 
-51.213427520978783 -66.444182796331731 138.79557572012234 -51.213427520978790 -66.444182796331702 138.79557572012240 -431.77345839063923 -1.3750162994920922e-05 8.4946973757276458e-06 9.8648239295169991e-06 0.0000000000000000 6.9111383282915987e-15 2.1094237467877974e-15 3.8052938577948225e-10 0.023252464288043780 3.4219958502696329e-11 -2.4408644171034250e-11 8.0955660949890840e-11 0.0000000000000000 -50.412828244765279 -66.590128188430739 142.20347059834828 136.07757377940416 0.0000000000000000 0.0000000000000000 0.0000000000000000 0.0000000000000000 3.1476197813355480 3.2986585296754090 1.1510338588380586 1.0747463129263946 1056.9145204968625 1056.9155460199911 1.0728392523136032 
-95.940422192568377 -159.48707953864792 70.560622566325677 -95.940422192568363 -159.48707953864795 70.560622566325691 -760.76362120198087 -1.9164368760437318e-05 -2.7982370357539413e-05 -3.9967060577039504e-05 -761.25446254634448 7.7993167479917247e-15 9.3258734068513149e-15 7.8901152278376685e-10 0.024555668849896444 7.4235710438303748e-11 -8.6392715023302643e-11 3.7295407554520649e-11 0.024535117694803078 -94.559718839999974 -158.71675115199997 77.626866652000004 109.98746742214213 0.0000000000000000 0.0000000000000000 0.0000000000000000 0.0000000000000000 3.1622441310217506 3.3303975315985181 1.1682152279391695 1.0811833884977704 1660.3370619906525 1660.3365238824351 1.0808356888472035 
-90.998749896231558 -159.23424368963200 75.644686771806903 -90.998749896231558 -159.23424368963200 75.644686771806875 -705.83954604607254 -6.9324570462548689e-05 -6.4249187122190831e-05 -8.1625059173311818e-05 -688.10064581175550 5.3568260938163803e-15 1.3988810110276974e-14 7.5856654291328596e-10 0.024538881188117704 1.8499732304728130e-11 -1.4928274491214306e-10 -4.0806374248924114e-11 0.024542667989794934 -89.682139475999989 -158.46640519600001 82.438353807199988 112.88451412247700 0.0000000000000000 0.0000000000000000 0.0000000000000000 0.0000000000000000 3.1641538890027885 3.3340130505350372 1.1699153640383195 1.0811833884977724 1560.9451857082686 1560.9457736734778 1.0816083229231706 
-104.19766546219931 -155.67684435400275 80.051590762725880 -104.19766546219931 -155.67684435400275 80.051590762725922 -696.90344212516470 -1.6138146998846604e-05 -1.5371135876585630e-05 -9.1822876032476692e-05 0.0000000000000000 5.3568260938163803e-15 1.1546319456101628e-14 7.3218942020503153e-10 0.024600163691041073 5.8043613679508173e-11 -1.2381159620616872e-10 1.0033070511630952e-10 0.0000000000000000 -102.70986659571734 -154.94403864466588 86.608986019839278 111.02505284862640 0.0000000000000000 0.0000000000000000 0.0000000000000000 0.0000000000000000 3.1657677815024656 3.3377527469342527 1.1720483545457983 1.0790880962843916 1561.8276382505408 1561.8264128388685 1.0826468959012592 
-101.86460399925707 -168.02835498317941 76.946186738854735 -101.86460399925711 -168.02835498317936 76.946186738854720 -739.85529416013560 -8.9837685216567410e-06 -1.9528292476885040e-05 -8.8131504443414666e-05 0.0000000000000000 1.1796119636642290e-14 -5.3290705182007514e-15 7.5077721817251596e-10 0.024505584680637744 4.4384558465937217e-11 -4.5696320710263082e-11 3.4442733996977690e-11 0.0000000000000000 -100.40706467681501 -167.17391327890167 83.670075146830683 105.53983917324770 0.0000000000000000 0.0000000000000000 0.0000000000000000 0.0000000000000000 3.1626458696309165 3.3312402484151091 1.1686562375570935 1.0794872998657035 1620.2755488875798 1620.2786589288205 1.0810484053286340 
-116.26841740173765 -99.990263268886380 90.579301350117149 -116.26841740173766 -99.990263268886352 90.579301350117163 -576.84589595214311 -1.5317334208341322e-05 -2.1752037665986294e-05 -6.5720302537154075e-05 -584.53369121727985 3.1247094373689035e-15 3.2196467714129536e-15 6.6917138497046835e-10 0.024758939920739340 6.4362431539474774e-11 5.1610219852062128e-11 3.7206766587734558e-10 0.024769634303023761 -114.62406224400000 -99.805851428000011 96.572263865600007 85.211636250682801 0.0000000000000000 0.0000000000000000 0.0000000000000000 0.0000000000000000 3.1672814357517263 3.3398383912526621 1.1725483292939514 1.0735119850363293 1347.3811428762197 1347.3811430329447 1.0828071214445936 
-112.68544654584218 -91.195443628133873 94.435026890694431 -112.68544654584220 -91.195443628133859 94.435026890694431 -543.14717707391640 -6.7046470499193899e-06 -1.0613901875792587e-06 -7.1328716350549563e-05 -538.53716453146365 1.2462253451417381e-14 2.8865798640254066e-15 6.4608229877194390e-10 0.024627976913240274 -4.0184865209921231e-13 -9.8389688517854377e-11 4.3158016176906234e-10 0.024564669851084246 -111.08756211600000 -91.097641973600034 100.22126851279998 99.535403830130534 0.0000000000000000 0.0000000000000000 0.0000000000000000 0.0000000000000000 3.1782550751177636 3.3639457351843922 1.1857934230864287 1.0782639143457284 1310.0340086036072 1310.0340086580293 1.0890205963055464 
-114.52610562246721 -97.818832777056670 103.06315838783576 -114.52610562246720 -97.818832777056684 103.06315838783576 -496.98514671738542 -6.6652212217297544e-06 -4.7133197653842767e-06 -6.3486074372071417e-05 -496.28568965803674 1.3350431871117506e-14 4.6629367034256583e-15 5.9443294730954221e-10 0.024323570374981410 1.0491000415637435e-10 2.0386685662176640e-10 4.5672353945014673e-10 0.024318203664977504 -112.90434805199999 -97.655804887999992 108.38681131359999 128.09762094244454 0.0000000000000000 0.0000000000000000 0.0000000000000000 0.0000000000000000 3.1658160164494480 3.3386422719390372 1.1729071619121263 1.0782940339937892 1211.1576238298217 1211.1576237874920 1.0830123787845471 
-108.70087123717212 -104.06574796652005 94.782555805221961 -108.70087123717212 -104.06574796652009 94.782555805221946 -535.44103601564848 -7.2548312662236769e-05 -6.9753277711148763e-06 -7.5733105285736823e-05 0.0000000000000000 1.4016565685892601e-14 2.2204460492503131e-16 6.4400751398352440e-10 0.024689154790086449 -4.5920873004700630e-11 1.6313499040953741e-10 3.2493613219376415e-10 0.0000000000000000 -107.15466629968294 -103.84120130723400 100.55016500991876 102.24201981555134 0.0000000000000000 0.0000000000000000 0.0000000000000000 0.0000000000000000 3.1386507834488993 3.2775968043464299 1.1388755991544921 1.0668498340683472 1213.0864176181958 1213.0864177102624 1.0670924659640209 
-27.454312818238265 -115.60857314754809 97.557523328934693 -27.454312818238247 -115.60857314754811 97.557523328934650 -167.50909950498971 5.6267782909697767e-05 2.4135186600180716e-05 -7.7746748062801479e-05 0.0000000000000000 -2.7065675050943000e-07 2.2386407933432661e-06 3.6377434565132363e-06 0.025815482107856558 -1.2952326440605293e-11 1.9371247527919553e-09 3.9440427483174931e-09 0.0000000000000000 -26.889884864405381 -115.37486796036181 103.37575244326078 96.382960025775517 0.0000000000000000 0.0000000000000000 0.0000000000000000 0.0000000000000000 3.2250382222621430 3.4626350737072866 1.2377442654281909 1.1121218233298107 726.58850093446779 726.58347506696850 1.1125178160486402 
-111.14625546309669 -103.84413763491398 149.35572704532569 -111.14625546309668 -103.84413763491398 149.35572704532569 -450.17243946242331 1.4713120313432619e-06 4.9897779921818239e-06 4.3447820832894304e-07 -452.20454216823242 4.0245584642661932e-15 -5.5511151231257835e-15 3.1730351679470914e-10 0.023162012325496008 1.5343806071681907e-11 2.7354366846742521e-11 3.4378258530935135e-11 0.023140351422383812 -109.56833416800004 -103.62177336400003 152.19744990400002 70.302883591683823 0.0000000000000000 0.0000000000000000 0.0000000000000000 0.0000000000000000 3.1568126804955079 3.3184440996560749 1.1616689887628433 1.0779781791203578 1108.0906417168021 1108.1165417994050 1.0778193826920810 