# For a description of the Tecplot format see the Tecplot User's guide.
#
Variables=x,y,z,s_u,s_v,s_w,s_p,mono_f_vel_u,mono_f_vel_v,mono_f_vel_w,const,u_nu,v_nu,w_nu,p_nu,x_nu,y_nu,z_nu,const,u_ref,v_ref,w_ref,vol_ref,x_ref,y_ref,z_ref,const,I1,I2,I3,J,p1,p2,p3
Zone f=fepoint, n=3174, e=16683, et=brick, c=black
-24.9737 -154.270 111.498 -24.973688074095442 -154.27041851136923 111.49795030983910 -93.360654974335546 -4.6064921516583012e-06 -1.9769875866879228e-05 -1.9195193021741086e-05 -91.939924543994479 1.2602241819537061e-10 8.6192067372259373e-11 9.4075987222552739e-08 0.00027488510422051307 -9.3252795235294463e-13 -5.7933756766134380e-12 1.2160877362407702e-11 0.00027200911443992995 -24.903554063199991 -154.16086777200002 112.24023381839994 89.724962256112903 0.0000000000000000 0.0000000000000000 0.0000000000000000 0.0000000000000000 3.0242288368576791 3.0485512983359815 1.0243222400538625 1.0126169756988364 211.16491185012896 211.16611248913625 1.0120870201308705 
-37.545396722201033 -155.27464994542945 114.19707112783955 -37.545396722201055 -155.27464994542939 114.19707112783955 -84.332591525469610 1.5699577377285722e-05 -1.8454265507427797e-05 -1.0208062471814119e-05 0.0000000000000000 4.7165054033437540e-09 1.8393383468745539e-08 1.0746649476166911e-08 0.00027933327697797326 8.9384557510115650e-12 -2.0268687729456603e-11 1.6520746535103467e-11 0.0000000000000000 -37.438273663334591 -155.10473791080037 114.93291110338620 89.036758072416930 0.0000000000000000 0.0000000000000000 0.0000000000000000 0.0000000000000000 3.0351030514544086 3.0705488217354859 1.0354465686655514 1.0166204696606125 218.23913268182031 218.23942155110336 1.0175715711983175 
-31.625900251584639 -147.97918345364133 119.18184105181599 -31.625900251584650 -147.97918345364130 119.18184105181594 -78.260642685946010 5.3848434828400564e-06 -1.3721532649733698e-05 -1.6597002867479192e-06 0.0000000000000000 1.4964267672223919e-10 7.8739056941223863e-11 8.6120224729313590e-08 0.00027301905953322784 3.5616363671195869e-12 -4.4247195736605215e-12 4.9134653598551262e-12 0.0000000000000000 -31.542619574254449 -147.87907313389167 119.86135157363466 98.260374494724786 0.0000000000000000 0.0000000000000000 0.0000000000000000 0.0000000000000000 3.0288613749317688 3.0579306365899730 1.0290694722931299 1.0149295104070650 198.35829246453281 198.35794105675367 1.0144272251172313 
-28.725203852541576 -143.06011050695503 111.38128433635950 -28.725203852541568 -143.06011050695500 111.38128433635943 -77.047926623641501 7.0336828909806724e-06 -1.5910789957175125e-05 -1.1470474382245690e-05 0.0000000000000000 1.3934218709432680e-10 7.2954822738502401e-11 9.4196771049936969e-08 0.00028257021263431174 2.2937380227556589e-11 -1.2867386347578644e-12 8.7425986491519342e-12 0.0000000000000000 -28.647655777685479 -142.96738158566356 112.12452093910819 112.69127588814607 0.0000000000000000 0.0000000000000000 0.0000000000000000 0.0000000000000000 3.0305618370821308 3.0613831009645485 1.0308218614847080 1.0150160959211025 198.48282539798046 198.48351171317691 1.0152937603388930 
-24.330723526172331 -200.61124795006012 72.667036648772594 -24.330723526172331 -200.61124795006009 72.667036648772594 -180.34661882331096 4.7660715179946905e-07 -3.6941182602946915e-09 4.0428619628486819e-07 -180.96344616172499 1.2373823840561291e-10 1.4087618571689831e-10 1.3428080225530437e-07 0.00029383819389405721 9.2085537029708657e-13 3.6264660766390829e-14 1.2104616849977424e-13 0.00029375218995311166 -24.261860196399997 -200.43215969199997 73.726546483199982 142.71380061529433 0.0000000000000000 0.0000000000000000 0.0000000000000000 0.0000000000000000 3.0235417308837778 3.0472111868694052 1.0236696543346022 1.0117514259980585 364.11103995292575 364.10948260973828 1.0117656213907120 
-24.226054236235814 -187.79894024011509 74.263413886145173 -24.226054236235818 -187.79894024011512 74.263413886145159 -178.23264535929016 2.5285038588595595e-06 -3.6821833452324277e-06 -1.1368473609263723e-06 -178.88587904571958 1.2336522428602059e-10 1.2575328278696674e-10 1.3262794706925260e-07 0.00029347688158449777 2.9691805842414215e-13 7.2340570766499179e-13 5.5093217656390965e-13 0.00029352660882082455 -24.157397762799999 -187.63907770800003 75.309882232799993 165.73632395326644 0.0000000000000000 0.0000000000000000 0.0000000000000000 0.0000000000000000 3.0235430290683074 3.0472129548809197 1.0236701203597904 1.0117514259980609 360.58046012520703 360.57294506037346 1.0117658091907007 
-34.975442600456120 -195.58287177855402 80.601993338093294 -34.975442600456091 -195.58287177855414 80.601993338093351 -177.27540393971071 8.6206220405985408e-07 -2.8982466708261118e-06 -5.8811361595706113e-06 0.0000000000000000 1.6154199158902036e-10 1.3494248773948669e-10 1.2606509391943632e-07 0.00029431042692625552 9.8325909056659428e-13 6.6700354073431720e-13 5.2631047277373100e-13 0.0000000000000000 -34.885542273181727 -195.41132893576267 81.596679120775832 139.46796289390394 0.0000000000000000 0.0000000000000000 0.0000000000000000 0.0000000000000000 3.0233430532734893 3.0468126249306198 1.0234697704943614 1.0115399858778242 358.51819950542978 358.50869374762254 1.0116667911191117 
-18.880693478707638 -194.69991791305472 80.416755932303829 -18.880693478707641 -194.69991791305469 80.416755932303843 -179.21342975255521 1.2569112896992193e-06 -1.7944640360866317e-06 -2.7298488944491852e-06 0.0000000000000000 1.0438299877235657e-10 1.3388794239954649e-10 1.2625689316259073e-07 0.00029293078115393901 2.7738536870286862e-13 6.2476409196102997e-13 4.9691151999084000e-13 0.0000000000000000 -18.822600960987238 -194.52970000168264 81.412954998504986 111.95285379220412 0.0000000000000000 0.0000000000000000 0.0000000000000000 0.0000000000000000 3.0235839165995011 3.0472953801589577 1.0237116611374979 1.0117514259980602 363.39181808967061 363.40744862490288 1.0117864053455314 
-22.729681288183539 -103.24088686093911 41.928051814313434 -22.729681288183539 -103.24088686093911 41.928051814313442 -181.07422929843332 -4.1931624284317255e-06 4.7751452264204551e-06 -6.4562891644428453e-06 -182.30095728495496 1.1805259200747820e-10 2.5940125047974056e-11 1.6610739872469082e-07 0.00029227785579734078 1.1293954585009420e-12 -2.5256079827155068e-12 3.4441319683700267e-12 0.00029294394802149170 -22.663982073999996 -103.20790935200000 43.238681550399988 69.202643319072678 0.0000000000000000 0.0000000000000000 0.0000000000000000 0.0000000000000000 3.0234957398742215 3.0471185980720774 1.0236230551826895 1.0117514259980607 365.65244589756082 365.65192497571564 1.0117426107429754 
-30.232186989263983 -110.81745359884202 45.709014556936019 -30.232186989263990 -110.81745359884205 45.709014556936033 -177.54760073657008 3.0892672472321423e-07 7.6507469352093281e-06 -8.7102979723405675e-06 -176.19073974917430 1.4469464168498369e-10 3.4887828737062427e-11 1.6219265552841475e-07 0.00029073268766227622 1.0779963671107623e-12 -3.8373374215479693e-12 4.2311490140643787e-12 0.00029061861840615747 -30.151660686400003 -110.77310694400001 46.988755992800002 74.715282964229786 0.0000000000000000 0.0000000000000000 0.0000000000000000 0.0000000000000000 3.0236189644828433 3.0473656310774628 1.0237468640244314 1.0117514259980611 358.96391254624632 358.96534276975382 1.0118038483700340 
-18.793069662095320 -103.60056555090631 48.753549978099521 -18.793069662095320 -103.60056555090635 48.753549978099507 -174.92713176480376 -5.0915834063628738e-06 3.9747546324644394e-06 -9.3185165738151054e-06 -175.14423695691721 1.0407432901593516e-10 2.6365590266586029e-11 1.5904040151504262e-07 0.00028965866762735930 1.6983921054984121e-12 -2.7057044255485122e-12 3.8679174894390532e-12 0.00028967381768891295 -18.735150314000002 -103.56704831999998 50.008419303199993 79.719497061372692 0.0000000000000000 0.0000000000000000 0.0000000000000000 0.0000000000000000 3.0235056681786037 3.0471384350604107 1.0236329636761676 1.0117514259980613 354.68808917107168 354.68629787491227 1.0117474783344491 
-25.563178243564398 -98.513472891994880 49.735389703731755 -25.563178243564387 -98.513472891994894 49.735389703731727 -176.96776016406628 -3.4294349922522295e-09 1.9566648045650172e-06 -1.4237791095685382e-05 0.0000000000000000 1.2811466817974626e-10 2.0366583419750839e-11 1.5802382158369710e-07 0.00029093865543055800 7.3231366690452232e-13 -1.8317220053357675e-12 4.5904613884618695e-12 0.0000000000000000 -25.491879232152165 -98.487589184379729 50.982237960580505 72.292163684038698 0.0000000000000000 0.0000000000000000 0.0000000000000000 0.0000000000000000 3.0234807364069329 3.0470890202635612 1.0236084825420599 1.0117514259980607 357.84523591598031 357.84642980798969 1.0117353444288497 
-25.376460239582357 -104.24763362264227 107.97879225771932 -25.376460239582347 -104.24763362264228 107.97879225771932 -77.652943075951441 5.0890745610362755e-06 1.7296247408854409e-05 -4.3729535283100660e-06 0.0000000000000000 4.5055565209181821e-08 2.2538476393600450e-09 1.3117754076690708e-07 0.00026330604631871329 -1.7477314536189173e-11 5.6391375655503943e-13 5.8742666736142442e-11 0.0000000000000000 -25.283559732051039 -104.23282252886388 108.75695162467670 96.378087069502698 0.0000000000000000 0.0000000000000000 0.0000000000000000 0.0000000000000000 3.0288927981894269 3.0579524341342936 1.0290593286034559 1.0153624751806214 194.04416536496691 194.04461796301226 1.0144216593302184 
-26.011815917738939 -118.04384826481052 109.89708627183532 -26.011815917738918 -118.04384826481053 109.89708627183528 -64.581908472099542 9.3418603524798031e-06 2.8811327769593281e-06 -6.9883827284467149e-06 0.0000000000000000 3.4061158386955290e-08 -3.1578768258164369e-09 1.5006594072841933e-07 0.00027081337030757059 -1.8248466235378387e-11 2.6757769516716436e-11 4.4833392071109462e-11 0.0000000000000000 -25.913646985361510 -118.01095136745833 110.66456878241424 88.846747377876298 0.0000000000000000 0.0000000000000000 0.0000000000000000 0.0000000000000000 3.0405854963266847 3.0815858811238099 1.0410012665920041 1.0187360257573308 194.21205766263148 194.21215098250374 1.0202988914894606 
-36.388023764760888 -112.70933962576079 111.29131850445043 -36.388023764760881 -112.70933962576088 111.29131850445039 -65.407942001289157 -3.9680440494473968e-06 1.3051528592861247e-05 8.7197839803951432e-06 0.0000000000000000 7.1775573228718503e-08 -1.4521545924612675e-08 1.6744343699075911e-07 0.00025916126965863824 9.1353370245641348e-12 4.6901023551340432e-12 -7.7081588139465707e-12 0.0000000000000000 -36.236867317722961 -112.72601430119678 112.03758904139967 95.996160021407249 0.0000000000000000 0.0000000000000000 0.0000000000000000 0.0000000000000000 3.0420312712578119 3.0845122949253034 1.0424822125322590 1.0199771973076641 198.52346562888297 198.52236038549918 1.0210208647351988 
-33.507185709570336 -105.07083506360041 104.80492562591880 -33.507185709570315 -105.07083506360047 104.80492562591874 -77.343051885229642 7.2448819269599094e-07 2.0065915245269715e-05 -7.4932121914302423e-06 0.0000000000000000 8.9455745606553959e-08 2.4544731579142357e-09 1.8476195337655912e-07 0.00026772875285423789 -1.5117729569347365e-11 -1.6094981954479309e-12 3.9956020913228541e-11 0.0000000000000000 -33.380789828628046 -105.09637623893835 105.63342596379557 85.433794965156210 0.0000000000000000 0.0000000000000000 0.0000000000000000 0.0000000000000000 3.0358661978198662 3.0720072296939906 1.0361411115453054 1.0171093018661053 203.49889538566734 203.49773650596498 1.0179094710501699 
-112.46245907537619 -160.78280261194104 124.02432079959767 -112.46245907537620 -160.78280261194101 124.02432079959770 -132.62083471957087 6.1890036481651653e-07 -1.9683612862079225e-06 -5.4696193023374503e-06 -132.34822657923834 4.3670284402552712e-10 9.3865595851561068e-11 8.1106404481445793e-08 0.00027738268862946970 -2.8535790139455508e-13 6.6696109550221314e-13 3.9568835046430625e-12 0.00027723503922965742 -112.21942232800005 -160.66347960400000 124.66427103520003 147.55923210393107 0.0000000000000000 0.0000000000000000 0.0000000000000000 0.0000000000000000 3.0256631346878069 3.0515029343132904 1.0258401398782231 1.0117514259980613 285.45601558733591 285.45604152955440 1.0128409664215519 
-99.750531828762632 -158.21015153209805 115.87834295814690 -99.750531828762632 -158.21015153209819 115.87834295814686 -134.85814049806564 -5.2042151089536772e-06 -3.5354294416797524e-06 -1.0872969874226655e-05 0.0000000000000000 3.9156753187108428e-10 9.0837240507291015e-11 8.9540604486515463e-08 0.00027946702623356945 8.1282863666050872e-13 -1.8401113571626978e-12 -1.7063199611361049e-12 0.0000000000000000 -99.532617471171264 -158.09468895943013 116.58484116745363 117.70414803503969 0.0000000000000000 0.0000000000000000 0.0000000000000000 0.0000000000000000 3.0181787443623889 3.0362997730603083 1.0181205064028489 1.0095333242165667 273.58685280718140 273.58686107586465 1.0090169254505410 
-104.57000155553543 -148.95655674644382 120.22073731689801 -104.57000155553536 -148.95655674644379 120.22073731689805 -130.30729315943029 -4.5437145672333985e-06 -3.8100961805912386e-06 -5.1183224531522057e-06 0.0000000000000000 4.0867473641292834e-10 7.9895659532702723e-11 8.5044568054470915e-08 0.00027770826281135410 -1.8267958606702857e-12 1.5191183868882329e-12 2.2128475241390723e-13 0.0000000000000000 -104.34256255272837 -148.85497981259945 120.89176065121424 119.29379793442074 0.0000000000000000 0.0000000000000000 0.0000000000000000 0.0000000000000000 3.0186307038578666 3.0372705125574679 1.0186397171441328 1.0096766275712223 266.71036308675781 266.71031063173359 1.0092734286412366 
-100.75029987885706 -162.40481165892868 123.92707072080785 -100.75029987885712 -162.40481165892871 123.92707072080790 -131.35409847905967 -3.0921595127617544e-06 -5.5585095713452323e-06 -4.8683969433603078e-06 0.0000000000000000 3.9511025354266316e-10 9.5775123942765106e-11 8.1207096824797986e-08 0.00027732505959059557 -1.5644384195784105e-12 -2.3923051454860187e-13 3.1290989073186524e-12 0.0000000000000000 -100.53040969477119 -162.28305471776312 124.56781543385799 141.51484144144280 0.0000000000000000 0.0000000000000000 0.0000000000000000 0.0000000000000000 3.0191935388421309 3.0384356092564109 1.0192420262086310 1.0098478786268563 269.50296099009023 269.50295509089113 1.0095727421881160 
-78.576596202076459 -148.89892844672053 88.518214124263650 -78.576596202076445 -148.89892844672050 88.518214124263665 -136.36821672462094 -1.3017852598650847e-05 -8.8572452595864336e-06 -4.3703548833718030e-06 -136.31079811027095 3.1636449362992819e-10 7.9836318112036508e-11 1.1786878184594229e-07 0.00028508047895738564 2.0407588721773229e-12 4.0202922325811338e-12 1.3965290104444117e-12 0.00028744163826869998 -78.400527573600002 -148.79743798799998 89.448228916799977 108.06316173413846 0.0000000000000000 0.0000000000000000 0.0000000000000000 0.0000000000000000 3.0250968810348455 3.0503420424536527 1.0252454552475336 1.0117514259980591 291.02919223971821 291.04976367889549 1.0125460457903546 
-80.328894958838347 -162.65677935156629 86.829196620167707 -80.328894958838347 -162.65677935156629 86.829196620167735 -156.24221078343152 -7.6946404939932048e-06 -1.4169293720430369e-05 -7.9491590034660313e-06 -156.89071953968488 3.2259031904069429e-10 9.6066363197699900e-11 1.1961756674061519e-07 0.00028996171033612270 -2.3757453519086126e-12 5.6940474033142822e-12 1.2938999083779693e-12 0.00029128631533709550 -80.149363288800018 -162.53464431600008 87.773009718400019 109.57810873427631 0.0000000000000000 0.0000000000000000 0.0000000000000000 0.0000000000000000 3.0254049494014903 3.0509500203692146 1.0255452947172115 1.0117514259980613 326.57309514229286 326.57106278632352 1.0126951445981616 
-84.483220413491040 -160.30303646337561 94.088688013700022 -84.483220413490969 -160.30303646337561 94.088688013700008 -147.30926900011926 -5.8643942286024936e-06 -9.8536742828156384e-06 -1.4772927524799328e-05 0.0000000000000000 3.3735323215489110e-10 9.3289334590629393e-11 1.1210121786398018e-07 0.00028818869997252909 1.9660799122502306e-12 1.4910318740217006e-12 5.0660241153976583e-12 0.0000000000000000 -84.295478612813938 -160.18443337667750 94.973195224810283 106.11323630727971 0.0000000000000000 0.0000000000000000 0.0000000000000000 0.0000000000000000 3.0189683216550809 3.0380242121505741 1.0190559602380835 1.0099245721157710 296.05677165474913 296.05599795838845 1.0094791770938765 
-86.666066409043495 -151.49553595818949 91.730714378113404 -86.666066409043481 -151.49553595818949 91.730714378113376 -143.92028671322603 -6.5068499782625403e-06 -1.2781878570735484e-05 -1.4322486949068583e-05 0.0000000000000000 3.4509295768203612e-10 8.2895676434269218e-11 1.1454262138776984e-07 0.00028675972824969024 2.1004821453705011e-12 1.6599532030036762e-12 2.4382672213943608e-12 0.0000000000000000 -86.474010682800568 -151.39014911596544 92.634484883397832 94.367740677547317 0.0000000000000000 0.0000000000000000 0.0000000000000000 0.0000000000000000 3.0213646330435036 3.0428431894521921 1.0214787551872961 1.0103321903998324 294.23599404765281 294.23132700024502 1.0106822324306972 
-26.090998664937477 -132.50778956888178 138.11982652558115 -26.090998664937484 -132.50778956888183 138.11982652558115 -94.287811447014306 5.2687195505765584e-06 -4.6119585639956336e-06 2.1215944042273658e-05 -97.692035513549470 1.2998846096734518e-10 6.0481689101443679e-11 6.6512181984279550e-08 0.00024682522635307978 3.8007003044033105e-12 -2.4700436616257383e-12 7.9486237310236038e-12 0.00024364372703700911 -26.018656529999991 -132.43089511199997 138.64462455200004 49.421240865332216 0.0000000000000000 0.0000000000000000 0.0000000000000000 0.0000000000000000 3.0232851062305248 3.0466937227298017 1.0234088528345870 1.0127290752158422 213.48243971874584 213.48242447404297 1.0116388992205780 
-32.580614378837481 -134.03600096044133 137.06957215687711 -32.580614378837481 -134.03600096044136 137.06957215687714 -91.736580802567246 -9.1116365111920181e-07 2.7464761427285808e-06 1.3311536093381720e-05 -83.405910428351930 1.5303386682874454e-10 6.2295849034832429e-11 6.7599599029577475e-08 0.00024845317842612174 1.6051267224806716e-12 3.6481271353957730e-12 1.9113007892248807e-11 0.00023409808561316521 -32.495446914399992 -133.95681332000001 137.60295016000006 48.530522504776933 0.0000000000000000 0.0000000000000000 0.0000000000000000 0.0000000000000000 3.0303967008866328 3.0610164448993387 1.0306201557672134 1.0152509661554492 224.51482762834266 224.51482628910952 1.0151894999752131 
-28.495297570944878 -136.52169469839814 139.79894395332312 -28.495297570944885 -136.52169469839811 139.79894395332309 -95.336247609218816 6.9172525172603697e-06 3.0440060353292506e-06 6.6059190668056199e-06 -98.781731341148785 1.3852636746025659e-10 6.5219538103455932e-11 6.4773633123849095e-08 0.00024567360548121022 5.5521919549877988e-12 -1.0884826034922159e-12 4.1463703251299409e-12 0.00024222352663423279 -28.418203856399998 -136.43877710800004 140.31002455199999 44.353383947079159 0.0000000000000000 0.0000000000000000 0.0000000000000000 0.0000000000000000 3.0249409078930234 3.0500128117538874 1.0250720670448634 1.0135401617284019 219.63191290109773 219.63190214640051 1.0124566456569162 
-26.842192198686746 -129.57422957823636 143.36639782301657 -26.842192198686742 -129.57422957823641 143.36639782301657 -99.278988503034782 2.0295838040375144e-06 2.5122473395358366e-06 4.5803171484900703e-06 0.0000000000000000 1.3265648649007922e-10 5.7039276080139694e-11 6.1079976854117035e-08 0.00024392738310762596 -8.7019089976710106e-13 -8.2015128918185724e-13 4.4774683510518395e-12 0.0000000000000000 -26.768365491316434 -129.50173712462359 143.84833436668455 49.139845408488213 0.0000000000000000 0.0000000000000000 0.0000000000000000 0.0000000000000000 3.0253084607585383 3.0507855178839254 1.0254773445834617 1.0135296632767770 228.39137123570626 228.39140161549486 1.0126572911210656 
-40.168926055370981 -65.452344265527358 153.55467690956817 -40.168926055370989 -65.452344265527358 153.55467690956814 -125.46586672438009 -2.4486906730680899e-06 -3.9498092187941818e-08 3.8538294315165452e-06 -126.15238400327979 1.7998396176222009e-10 -1.8660434308870322e-11 5.0531213657833980e-08 0.00026088663235152341 3.9051751044294360e-12 -1.8452685670278835e-12 -1.1147629088745468e-12 0.00026130322888379663 -40.068761925200000 -65.476070995999990 153.95338104800004 156.95717166164070 0.0000000000000000 0.0000000000000000 0.0000000000000000 0.0000000000000000 3.0227596226275484 3.0456455939932994 1.0228862060679857 1.0113483493451418 266.86150308556864 266.85890962330944 1.0113785582003929 
-52.551393318767893 -59.623302671359774 148.82648372713805 -52.551393318767886 -59.623302671359760 148.82648372713808 -126.81254155520590 -2.3726058048392468e-06 -6.9676609292365404e-07 3.2149938565897724e-06 -127.11127993445469 2.2395216583981356e-10 -2.5547799986647138e-11 5.5426702560978918e-08 0.00026394253053381233 2.2242775900864998e-12 6.7059103238002564e-14 -1.8022476859614057e-12 0.00026374253775851298 -52.426757905599978 -59.655776269200025 149.26381449600007 118.05125250056595 0.0000000000000000 0.0000000000000000 0.0000000000000000 0.0000000000000000 3.0241116906050678 3.0483674959452887 1.0242560599855641 1.0114242425924773 272.14627194649580 272.14746785253703 1.0120557946750990 
-35.263386649147996 -66.006875548462432 144.52713713575326 -35.263386649147996 -66.006875548462418 144.52713713575326 -122.94234210405624 -8.3395054569108078e-07 4.6174968413203595e-07 4.7017458391634219e-07 -122.89366205854321 1.6256304982698036e-10 -1.8009177482625202e-11 5.9878172198324364e-08 0.00025994872151378071 2.1139503205990192e-12 -2.3353639899257097e-12 2.3679563506841279e-12 0.00025882569422856506 -35.172917262399999 -66.029770167599992 144.99959110400002 155.12084301790807 0.0000000000000000 0.0000000000000000 0.0000000000000000 0.0000000000000000 3.0238937539652144 3.0479132981677610 1.0240197423624182 1.0117184182952390 265.19357177987388 265.19424677476024 1.0119386985578982 
-50.533475677782988 -66.568075687693792 141.70798577805743 -50.533475677782995 -66.568075687693806 141.70798577805741 -124.65179755003324 -2.4520255525319612e-06 1.1008874118808832e-06 2.0708002709158244e-06 0.0000000000000000 2.1678334474750649e-10 -1.7344292668752814e-11 6.2797048672180722e-08 0.00026316984755591727 3.3835974402602665e-12 -7.9030177512699029e-13 1.3316970281216918e-12 0.0000000000000000 -50.412828244765279 -66.590128188430739 142.20347059834828 136.07757377940416 0.0000000000000000 0.0000000000000000 0.0000000000000000 0.0000000000000000 3.0209075647241961 3.0418793536609647 1.0209717305635910 1.0107048570089241 261.60484628165256 261.60519908578584 1.0104307188727011 
-94.767785872028981 -158.83314857345965 76.599482649256359 -94.767785872028981 -158.83314857345971 76.599482649256373 -175.44316156000801 -3.1868704173830470e-06 -4.0767074053078253e-06 -6.0710969410724916e-06 -175.41602669097682 3.7386549758822163e-10 9.1566851323499066e-11 1.3020922118300857e-07 0.00029034442910653681 -6.5478659825241072e-14 7.7828406082223438e-13 1.2394697885777197e-12 0.00029073088946126013 -94.559718839999974 -158.71675115199997 77.626866652000004 109.98746742214213 0.0000000000000000 0.0000000000000000 0.0000000000000000 0.0000000000000000 3.0234014200876804 3.0469293034455922 1.0235280810378504 1.0117514259980611 355.50168455454980 355.50261553804137 1.0116955355331962 
-89.880547933520177 -158.58242639203192 81.450600660336590 -89.880547933520148 -158.58242639203189 81.450600660336562 -166.66579774189793 -1.1358935283376915e-05 -9.6050642657401942e-06 -1.2585684827051630e-05 -163.62953631663817 3.5651679178294598e-10 9.1260596302156203e-11 1.2518647007908609e-07 0.00028975957189465213 2.8413716281581388e-13 2.0754155698993898e-12 2.3748122054354750e-12 0.00028969813326913105 -89.682139475999989 -158.46640519600001 82.438353807199988 112.88451412247700 0.0000000000000000 0.0000000000000000 0.0000000000000000 0.0000000000000000 3.0236514467876225 3.0474247101302772 1.0237734426795675 1.0117514259980613 339.62540572329721 339.62867638013734 1.0118164908178373 
-102.93407253671771 -155.05476635050690 85.655585188344716 -102.93407253671772 -155.05476635050681 85.655585188344673 -165.70532367236586 -2.6314578224835993e-06 -2.1362727393619195e-06 -1.4356226497250176e-05 0.0000000000000000 4.0287340477562777e-10 8.7115467617415732e-11 1.2083270339857679e-07 0.00028903874843741342 4.5533247774971482e-13 1.5473391942608513e-13 8.7789504264444019e-13 0.0000000000000000 -102.70986659571734 -154.94403864466588 86.608986019839278 111.02505284862640 0.0000000000000000 0.0000000000000000 0.0000000000000000 0.0000000000000000 3.0239697552519025 3.0480733122581527 1.0241037604542134 1.0114361984061400 340.62973270199842 340.62982490603287 1.0119809656143699 
-100.62671061330232 -167.30302031025269 82.692467339510145 -100.62671061330231 -167.30302031025261 82.692467339510145 -172.13324998058570 -1.6305135545692054e-06 -2.7289126177231728e-06 -1.3662241770314344e-05 0.0000000000000000 3.9467132686987760e-10 1.0156485374945845e-10 1.2390066150835821e-07 0.00029018582681785424 -3.9709980865041839e-13 1.0868281082786462e-12 1.9515672593139726e-14 0.0000000000000000 -100.40706467681501 -167.17391327890167 83.670075146830683 105.53983917324770 0.0000000000000000 0.0000000000000000 0.0000000000000000 0.0000000000000000 3.0234867110769703 3.0471011382564845 1.0236146260478838 1.0114991143107150 349.24696649389750 349.24609829865216 1.0117385360413804 
-114.87186065532100 -99.833716249208535 95.700927729627594 -114.87186065532099 -99.833716249208535 95.700927729627594 -148.37149065381485 -2.3807704813411206e-06 -3.1846097406839797e-06 -1.0299219029809415e-05 -149.58522649732828 4.4525902786609420e-10 2.1921006676528524e-11 1.1043193337556545e-07 0.00028735104943446437 1.3141233489127906e-12 3.0436929745207866e-12 4.1550964686028250e-12 0.00028750163323056473 -114.62406224400000 -99.805851428000011 96.572263865600007 85.211636250682801 0.0000000000000000 0.0000000000000000 0.0000000000000000 0.0000000000000000 3.0240083403167524 3.0481195084424901 1.0241110789980044 1.0105383144571738 309.38955985220588 309.47196625068909 1.0119826548614907 
-111.32835755567510 -91.112419905452896 99.379988193795370 -111.32835755567511 -91.112419905452924 99.379988193795356 -143.07963259651942 -1.1057679314718531e-06 -1.4381055067961053e-07 -1.1372943161451000e-05 -142.31991264102973 4.3266990337742506e-10 1.1623632611978964e-11 1.0662270710781740e-07 0.00028502423236389222 2.8063664933488291e-13 -1.1604782272155526e-13 5.0897638133464167e-12 0.00028368229642342709 -111.08756211600000 -91.097641973600034 100.22126851279998 99.535403830130534 0.0000000000000000 0.0000000000000000 0.0000000000000000 0.0000000000000000 3.0260993693200002 3.0523671573706115 1.0262681517994534 1.0113220822538431 304.33315465117732 304.34561615945501 1.0130513063152260 
-113.14874108815071 -97.680438571817348 107.61278825612055 -113.14874108815071 -97.680438571817362 107.61278825612052 -135.89486668914958 -9.7607688138098923e-07 -5.2406495681528449e-07 -9.6164935374239001e-06 -135.72919541503489 4.3914347505613632e-10 1.9379733928737153e-11 9.8098603240615034e-08 0.00028233396120160860 1.0012952357544214e-12 1.7087466927206677e-12 6.1068965837010739e-12 0.00028242488123927988 -112.90434805199999 -97.655804887999992 108.38681131359999 128.09762094244454 0.0000000000000000 0.0000000000000000 0.0000000000000000 0.0000000000000000 3.0240606914769397 3.0482750299554549 1.0242146036259110 1.0112825806778261 288.35940350572577 288.34409831913774 1.0120350670026563 
-107.38767382563229 -103.87513054130007 99.711593718135134 -107.38767382563222 -103.87513054130009 99.711593718135177 -141.76095817620481 -1.1023706613347474e-05 -9.8119980983782048e-07 -1.2146371816403574e-05 0.0000000000000000 4.1867601399681043e-10 2.6686500231853924e-11 1.0627936641860458e-07 0.00028625655336243761 3.1821616711636333e-12 1.9133807158273010e-12 2.5317068455859367e-13 0.0000000000000000 -107.15466629968294 -103.84120130723400 100.55016500991876 102.24201981555134 0.0000000000000000 0.0000000000000000 0.0000000000000000 0.0000000000000000 3.0191561052097868 3.0382984866215748 1.0191420846550487 1.0094845454000290 286.92188973872743 286.99388920983915 1.0095232115752699 
-26.980947456013034 -115.40131633530939 102.52230550286323 -26.980947456013038 -115.40131633530930 102.52230550286323 -71.495440274591402 1.0627854308167367e-05 7.0747136865318436e-06 -1.6450226830996420e-05 0.0000000000000000 4.0638391460440021e-08 -8.0919512109158012e-09 1.4958857348227477e-07 0.00028768822869657689 5.9229825979958360e-12 2.1973344245115960e-11 4.4538589520816813e-11 0.0000000000000000 -26.889884864405381 -115.37486796036181 103.37575244326078 96.382960025775517 0.0000000000000000 0.0000000000000000 0.0000000000000000 0.0000000000000000 3.0345385377190532 3.0693768254130540 1.0348387294979491 1.0173398985476285 194.06534780695407 194.06474188450733 1.0172695490594632 
-109.80612123503028 -103.65537283691022 151.78428265845412 -109.80612123503032 -103.65537283691020 151.78428265845417 -129.20639931989635 3.2167062438765483e-07 1.0074494389082879e-06 1.9010994553278839e-07 -129.60649135402485 4.2727019491928253e-10 2.6426569266213562e-11 5.2364245828329103e-08 0.00027321507929656670 -3.1356817002354972e-13 -1.1481003443626411e-12 6.0709885868923386e-14 0.00027304333792483579 -109.56833416800004 -103.62177336400003 152.19744990400002 70.302883591683823 0.0000000000000000 0.0000000000000000 0.0000000000000000 0.0000000000000000 3.0224374687011371 3.0449735427699380 1.0225361783662927 1.0112078928334105 272.87239506548582 272.87239556834174 1.0112056863748204 