# For a description of the Tecplot format see the Tecplot User's guide.
#
Variables=x,y,z,s_u,s_v,s_w,s_p,mono_f_vel_u,mono_f_vel_v,mono_f_vel_w,const,u_nu,v_nu,w_nu,p_nu,x_nu,y_nu,z_nu,const,u_ref,v_ref,w_ref,vol_ref,x_ref,y_ref,z_ref,const,I1,I2,I3,J,p1,p2,p3
Zone f=fepoint, n=3174, e=16683, et=brick, c=black
-25.7020 -155.402 103.203 -25.702036454470431 -155.40197263070664 103.20325211321143 -394.50092055430906 -4.6543121668231071e-05 -0.00017475582159642104 -0.00018357541968128273 -370.47268905931128 1.2945200467129328e-13 2.8199664825478982e-14 2.9748782992555789e-08 -0.0042002539846806193 -2.3817648355471519e-10 -1.0260670021260122e-09 -2.3025572705348101e-10 -0.0042129262270932267 -24.903554063199991 -154.16086777200002 112.24023381839994 89.724962256112903 0.0000000000000000 0.0000000000000000 0.0000000000000000 0.0000000000000000 3.3040048140152098 3.6231493350503694 1.3189387730652522 1.1513127236941769 1252.8380523200872 1252.8874189056664 1.1482151459375984 
-38.584753662813647 -156.94928758031475 105.95000049538875 -38.584753662813661 -156.94928758031477 105.95000049538882 -317.87342202466556 0.00014423567789277007 -0.00013265470400527197 -8.9234628888338520e-05 0.0000000000000000 1.3899793101595820e-06 -6.6140635771889504e-06 -1.5732299914278280e-06 -0.0044319639923588233 -4.0938151599409399e-10 -7.2819874968332367e-10 -3.5393393516772859e-10 0.0000000000000000 -37.438273663334591 -155.10473791080037 114.93291110338620 89.036758072416930 0.0000000000000000 0.0000000000000000 0.0000000000000000 0.0000000000000000 3.4006686442031375 3.8444573610876356 1.4448953136189722 1.1911141379683077 1302.5055890837323 1302.4874038915550 1.2022947531146175 
-32.490778014534655 -149.01322708815508 111.58860391948937 -32.490778014534641 -149.01322708815499 111.58860391948932 -265.72732191554684 4.1968981965540296e-05 -9.2571520867209707e-05 -4.0407975365048529e-05 0.0000000000000000 1.5332179970073412e-13 3.8857805861880485e-14 2.7233006960614148e-08 -0.0038190395640069468 -2.5906736625210145e-10 -9.4347141784220897e-10 1.0490311317837451e-10 0.0000000000000000 -31.542619574254449 -147.87907313389167 119.86135157363466 98.260374494724786 0.0000000000000000 0.0000000000000000 0.0000000000000000 0.0000000000000000 3.3391530934633380 3.7056842057744466 1.3668944510641261 1.1727867818501578 1132.8032257828631 1132.7999931207150 1.1688472065207380 
-29.530547993016480 -144.01791137140640 103.07593572307803 -29.530547993016484 -144.01791137140648 103.07593572307810 -265.61431647795035 4.4460054160837122e-05 -0.00012899247482518069 -7.2639192619917175e-05 0.0000000000000000 1.4022116801015725e-13 3.3972824553529784e-14 2.9786988875457613e-08 -0.0034408959556189167 -9.7704257272066780e-10 -8.8000394216223361e-10 -1.2713553795456220e-10 0.0000000000000000 -28.647655777685479 -142.96738158566356 112.12452093910819 112.69127588814607 0.0000000000000000 0.0000000000000000 0.0000000000000000 0.0000000000000000 3.3541362295768193 3.7405420086957584 1.3871833416926413 1.1736937767144120 1149.6453463817970 1149.6754981803033 1.1778012253293191 
-25.045875762106427 -202.46105797690018 60.827471022462653 -25.045875762106423 -202.46105797690018 60.827471022462660 -1301.1584557329943 1.0265235900385420e-05 1.2860456995102710e-06 6.2460051167243677e-06 -1308.4793680158598 1.2534417948018017e-13 4.3298697960381105e-14 4.2462382054964103e-08 -0.0029001992520227542 -2.0821022115173692e-09 -1.2676842606581266e-10 -5.4840652631307705e-10 -0.0028125554347204307 -24.261860196399997 -200.43215969199997 73.726546483199982 142.71380061529433 0.0000000000000000 0.0000000000000000 0.0000000000000000 0.0000000000000000 3.2909029761650634 3.6002832967552325 1.3097120378062437 1.1442391270146892 2844.1337625878987 2844.1205298387822 1.1444274280750248 
-24.939058249421098 -189.45016694825162 62.569581263277861 -24.939058249421098 -189.45016694825159 62.569581263277868 -1278.1170764881117 3.3345171931811243e-05 -4.3247416376474431e-05 -1.3994246232172000e-05 -1287.2462771982332 1.2589929099249275e-13 5.0404125317982107e-14 4.1939713923966337e-08 -0.0029592485457749251 -1.4978306439946619e-09 -3.7215630332920804e-10 -4.7900974612161109e-10 -0.0030906351479364864 -24.157397762799999 -187.63907770800003 75.309882232799993 165.73632395326644 0.0000000000000000 0.0000000000000000 0.0000000000000000 0.0000000000000000 3.2910001721417323 3.6003506464347277 1.3096755361595520 1.1442391270146899 2805.6803086204741 2805.6537904642137 1.1444057205792038 
-35.909066058311637 -197.35474489891061 69.486808543237117 -35.909066058311652 -197.35474489891047 69.486808543237146 -1263.6959622275992 1.6639423818995454e-05 -3.3990031705336644e-05 -6.4784211878782811e-05 0.0000000000000000 1.6286971771251046e-13 5.6621374255882971e-14 3.9864396228495031e-08 -0.0040652181035216155 -3.1238564090425657e-09 2.3955865841771972e-09 -6.8920421765324145e-09 0.0000000000000000 -34.885542273181727 -195.41132893576267 81.596679120775832 139.46796289390394 0.0000000000000000 0.0000000000000000 0.0000000000000000 0.0000000000000000 3.2882283100225145 3.5947212678571105 1.3068252615466474 1.1415558642904631 2775.8494619796988 2775.9484083510920 1.1431612551615187 
-19.483989806029303 -196.45810576196430 69.284660846531679 -19.483989806029296 -196.45810576196433 69.284660846531722 -1290.5698321352909 1.7116542148671121e-05 -2.2217367551624421e-05 -3.0507311604966799e-05 0.0000000000000000 1.0774714453987144e-13 3.8857805861880479e-14 3.9925051709133179e-08 -0.0016142160017189448 -1.1063613246348805e-10 6.1704675628286412e-11 -8.4836211255253880e-10 0.0000000000000000 -18.822600960987238 -194.52970000168264 81.412954998504986 111.95285379220412 0.0000000000000000 0.0000000000000000 0.0000000000000000 0.0000000000000000 3.2914823775138298 3.6014104312533282 1.3102585068328529 1.1442391270146908 2839.1154388550499 2839.1128645240810 1.1446696628607989 
-23.411973882483103 -103.58151291513477 27.282329549190582 -23.411973882483100 -103.58151291513478 27.282329549190585 -1224.4421679056099 -4.0283454887636328e-05 4.9538720594694482e-05 -6.7870962750586907e-05 -1239.1800901304323 1.2034817586936697e-13 1.4432899320127035e-14 5.2526612392966847e-08 0.021315824445540071 2.1529467335290703e-09 -3.6439023329363345e-09 4.6082579767870879e-09 0.021890625802882337 -22.663982073999996 -103.20790935200000 43.238681550399988 69.202643319072678 0.0000000000000000 0.0000000000000000 0.0000000000000000 0.0000000000000000 3.2903287148990215 3.5990405955309575 1.3090412257524948 1.1442391270146901 2713.2922685243338 2715.6715781621747 1.1441367690584683 
-31.068460311147732 -111.27551203143922 31.408455730308397 -31.068460311147742 -111.27551203143919 31.408455730308393 -1188.9690324994353 1.8577370279388699e-06 7.6306607312467715e-05 -9.1669270008413000e-05 -1179.7810792012388 1.4732659536775827e-13 5.7731597280508148e-15 5.1288690627870899e-08 0.019035370901238097 1.0217654088909314e-09 -5.8292343642881718e-09 5.5948568235244869e-09 0.017823465406838594 -30.151660686400003 -110.77310694400001 46.988755992800002 74.715282964229786 0.0000000000000000 0.0000000000000000 0.0000000000000000 0.0000000000000000 3.2917472855240937 3.6019443073986817 1.3105265890533726 1.1442391270146897 2645.4142203173983 2650.4745011083155 1.1447914153445582 
-19.394567606373609 -103.94676641563083 34.730926266447511 -19.394567606373609 -103.94676641563085 34.730926266447511 -1162.7913646121731 -4.9846500961284801e-05 4.0527808258309992e-05 -9.6730607928662343e-05 -1165.7323190551326 1.0608181000293372e-13 7.1054273576010019e-15 5.0291884434727763e-08 0.017308250925436138 3.2480484410111462e-09 -3.4817067350414500e-09 5.9758548446473673e-09 0.017190341895679223 -18.735150314000002 -103.56704831999998 50.008419303199993 79.719497061372692 0.0000000000000000 0.0000000000000000 0.0000000000000000 0.0000000000000000 3.2904610203754010 3.5993018051244925 1.3091697948232992 1.1442391270146908 2602.9405339303162 2620.5311657235006 1.1441897857650318 
-26.303625265222049 -98.780826778826835 35.802397971768436 -26.303625265222045 -98.780826778826835 35.802397971768421 -1180.1238222850052 2.9067036903891355e-06 1.7505625000063272e-05 -0.00014934151794042492 0.0000000000000000 1.2900791546144319e-13 9.5479180117763478e-15 4.9970417137501499e-08 0.019497754793217994 1.6261293757555561e-09 -3.3869744566201536e-09 7.8063574410267244e-09 0.0000000000000000 -25.491879232152165 -98.487589184379729 50.982237960580505 72.292163684038698 0.0000000000000000 0.0000000000000000 0.0000000000000000 0.0000000000000000 3.2902072764694017 3.5988734718784623 1.3089990264522446 1.1442391270146908 2629.7415069576750 2598.1329557025256 1.1441100995414895 
-26.272155651144214 -104.47781532847134 99.306993545530503 -26.272155651144207 -104.47781532847135 99.306993545530517 -247.82721187001047 4.1941128659402336e-05 0.00013817706801138978 -9.0489299255733150e-06 0.0000000000000000 -1.1803307735898200e-07 -2.8466883523381769e-06 3.0655018072898479e-06 -0.00077331913899414330 1.9676957361958833e-10 -5.2162848659926093e-10 -7.4031486614766105e-10 0.0000000000000000 -25.283559732051039 -104.23282252886388 108.75695162467670 96.378087069502698 0.0000000000000000 0.0000000000000000 0.0000000000000000 0.0000000000000000 3.3431322963617025 3.7118272515094293 1.3687631730916439 1.1777976567201582 1076.2757088633696 1075.8672720472323 1.1696642030240845 
-26.947767962988156 -118.49699479994608 101.34427707162342 -26.947767962988141 -118.49699479994612 101.34427707162335 -167.33390934538841 5.2100278632525262e-05 9.5727843611682220e-07 -4.4455224468775212e-05 0.0000000000000000 -9.0152134573524196e-07 -4.6582412281047057e-06 4.1965604933607381e-06 -0.0015879905500089365 1.0454453383353198e-10 -9.7413741041686403e-10 -1.8805988686123116e-10 0.0000000000000000 -25.913646985361510 -118.01095136745833 110.66456878241424 88.846747377876298 0.0000000000000000 0.0000000000000000 0.0000000000000000 0.0000000000000000 3.4397007906074291 3.9264688299178836 1.4879414140428728 1.2062538343190299 1109.3779108629856 1109.6779875619509 1.2200876321531593 
-37.771435215647898 -112.78405962493591 102.91542910558091 -37.771435215647898 -112.78405962493584 102.91542910558097 -174.48631309240443 -5.1386350736005457e-05 6.0420747728253935e-05 3.5520262448067746e-05 0.0000000000000000 -1.6799180967895804e-06 -9.6112480012182740e-06 9.1299700972727744e-06 -0.0013787853341942649 -4.0675310567890827e-10 -7.0599889409193072e-10 5.0385377195905394e-10 0.0000000000000000 -36.236867317722961 -112.72601430119678 112.03758904139967 95.996160021407249 0.0000000000000000 0.0000000000000000 0.0000000000000000 0.0000000000000000 3.4485962164481654 3.9472589174274200 1.5001151111167863 1.2168185490797923 1141.2056656579400 1141.1850824285170 1.2248280419998165 
-34.681262142762534 -105.01883193051351 95.648553508568952 -34.681262142762534 -105.01883193051347 95.648553508568952 -240.27075078358206 7.6025224838778592e-07 0.00015545329485441847 -1.0844415108236755e-05 0.0000000000000000 -1.3728563224310690e-06 -7.7560364314428691e-06 1.0951049490670987e-05 -0.00063702091908780898 4.0191020155103569e-10 -6.0308769200499376e-10 4.6230490237156875e-10 0.0000000000000000 -33.380789828628046 -105.09637623893835 105.63342596379557 85.433794965156210 0.0000000000000000 0.0000000000000000 0.0000000000000000 0.0000000000000000 3.4141448121509184 3.8659929185845110 1.4524260125466624 1.1961739956225053 1146.0735703523681 1146.0634706363815 1.2051222602479887 
-114.98641883559769 -162.01529489766048 116.87315281059946 -114.98641883559770 -162.01529489766045 116.87315281059948 -705.04953149624964 8.5409571158521342e-06 -2.6660298077110323e-05 -5.9909214341262138e-05 -702.21925067267887 4.4231285301066242e-13 2.9976021664879233e-14 2.5647530321748491e-08 -0.0028513450106364426 8.6676444536433458e-11 -2.7336481025445983e-10 -1.2378008179792747e-10 -0.0028450752980172318 -112.21942232800005 -160.66347960400000 124.66427103520003 147.55923210393107 0.0000000000000000 0.0000000000000000 0.0000000000000000 0.0000000000000000 3.3099173613348754 3.6441920357526172 1.3348189005570867 1.1442391270146903 1843.5635919337401 1843.5602072380677 1.1556643729955398 
-102.01359317925032 -159.40276922216563 107.98353005301000 -102.01359317925029 -159.40276922216566 107.98353005300999 -733.70758293987149 -5.6967997539284884e-05 -4.5188635159557093e-05 -0.00011053345280559035 0.0000000000000000 3.9257486150745535e-13 3.8413716652030416e-14 2.8314598665701851e-08 -0.0031793975229355079 3.6410630481209499e-10 -4.0051417915297812e-10 -1.1092094928487263e-10 0.0000000000000000 -99.532617471171264 -158.09468895943013 116.58484116745363 117.70414803503969 0.0000000000000000 0.0000000000000000 0.0000000000000000 0.0000000000000000 3.2477240125622151 3.4920042087785816 1.2435621257506926 1.1200803847857699 1762.6965331233023 1762.7197749679983 1.1148659423603453 
-106.93197725339796 -150.00574909861959 112.72234084593342 -106.93197725339799 -150.00574909861959 112.72234084593343 -677.81117840090599 -4.6553236756159118e-05 -5.2022920350792225e-05 -4.9060985216392688e-05 0.0000000000000000 4.1966430330830917e-13 3.6637359812630166e-14 2.6892863047578430e-08 -0.0026913269895087952 1.8958902324522865e-10 -3.4496997450344192e-10 -1.4038809122274015e-10 0.0000000000000000 -104.34256255272837 -148.85497981259945 120.89176065121424 119.29379793442074 0.0000000000000000 0.0000000000000000 0.0000000000000000 0.0000000000000000 3.2466669665268411 3.4975349675066516 1.2507641645610657 1.1224244857362760 1670.6281971957333 1670.6191328838979 1.1180185215460410 
-103.03388037560102 -163.66244414162202 116.76702478884272 -103.03388037560094 -163.66244414162205 116.76702478884272 -696.25631158480439 -2.9527668403969218e-05 -6.7475515383696210e-05 -5.4730533129716825e-05 0.0000000000000000 4.0367709175370692e-13 1.8429702208777599e-14 2.5679376847165258e-08 -0.0030670329075520452 3.2426785554854205e-10 -3.9189445453231640e-10 -2.7049889633144277e-10 0.0000000000000000 -100.53040969477119 -162.28305471776312 124.56781543385799 141.51484144144280 0.0000000000000000 0.0000000000000000 0.0000000000000000 0.0000000000000000 3.2508445782221953 3.5107753237682711 1.2599058569229136 1.1241071799540736 1712.5691737104985 1712.5648631060324 1.1222210407054058 
-80.405085671712612 -149.94722759376344 78.125699763485002 -80.405085671712627 -149.94722759376347 78.125699763485017 -771.77327796963868 -0.00013504596081546962 -9.9385581553415394e-05 -4.8442965853115682e-05 -774.36607344301888 3.1485924978369439e-13 2.9531932455029164e-14 3.7272560149403944e-08 -0.0023175970209664593 4.6294898571966804e-10 1.7995316824092582e-10 1.5884046778026092e-10 -0.0022767761264090715 -78.400527573600002 -148.79743798799998 89.448228916799977 108.06316173413846 0.0000000000000000 0.0000000000000000 0.0000000000000000 0.0000000000000000 3.3105831375265971 3.6422743145752157 1.3321637605898431 1.1442391270146886 1965.1519317782152 1968.0311278409924 1.1544884635877961 
-82.193348444799369 -163.91831718696756 76.282492141930248 -82.193348444799341 -163.91831718696761 76.282492141930248 -982.32088152110259 -7.5537147578151853e-05 -0.00016501478872847376 -8.9893722787259191e-05 -990.74172272693966 3.2818192607919627e-13 3.7081449022480228e-14 3.7825564902504987e-08 -0.0025680206420331062 -1.0874869565039184e-10 -6.2032920787447506e-11 1.2019280987449300e-10 -0.0021545506042674402 -80.149363288800018 -162.53464431600008 87.773009718400019 109.57810873427631 0.0000000000000000 0.0000000000000000 0.0000000000000000 0.0000000000000000 3.3130896439530555 3.6461303499885260 1.3334046226458514 1.1442391270146903 2334.2611754177333 2332.8570033195169 1.1551005339525235 
-86.432936887794312 -161.52809265279294 84.204701256235467 -86.432936887794312 -161.52809265279299 84.204701256235424 -884.78714878643950 -5.1513699860677007e-05 -0.00011153522819725230 -0.00016325453174764434 0.0000000000000000 3.4439118223872356e-13 3.1308289294429414e-14 3.5448742607968597e-08 -0.0022255082142980582 2.0474576575819598e-09 -1.3390914627086710e-09 6.8974686787208825e-10 0.0000000000000000 -84.295478612813938 -160.18443337667750 94.973195224810283 106.11323630727971 0.0000000000000000 0.0000000000000000 0.0000000000000000 0.0000000000000000 3.2371295124875137 3.4882947635335042 1.2513434201622455 1.1224626006028884 2009.3543933139520 2008.8826056386313 1.1180861505916093 
-88.660583411062589 -152.58408101164298 81.631468612998418 -88.660583411062589 -152.58408101164289 81.631468612998390 -844.35693912685656 -6.1387435189664606e-05 -0.00014563219736160561 -0.00015437981239768640 0.0000000000000000 3.5704772471945034e-13 2.2870594307278225e-14 3.6220768606654019e-08 -0.0020158178645331881 4.7596950336953729e-10 -3.8405953009084529e-12 -1.5757566435794056e-10 0.0000000000000000 -86.474010682800568 -151.39014911596544 92.634484883397832 94.367740677547317 0.0000000000000000 0.0000000000000000 0.0000000000000000 0.0000000000000000 3.2635337252455652 3.5440053985548783 1.2808102533326531 1.1274548617017051 1981.7764753362578 1985.9473500337556 1.1317431432501788 
-26.842278623717071 -133.30203559533308 132.25543483005546 -26.842278623717068 -133.30203559533308 132.25543483005546 -379.07238730329806 4.1560762863136609e-05 -3.5241547605242940e-05 0.00016344105528316000 -404.75564460232005 1.3300471835009375e-13 2.8199664825478973e-14 2.1032537489418246e-08 -0.0023475901615879302 -2.8380077322911429e-10 4.0356283799219287e-11 4.6534921026654644e-10 -0.0022558574773112838 -26.018656529999991 -132.43089511199997 138.64462455200004 49.421240865332216 0.0000000000000000 0.0000000000000000 0.0000000000000000 0.0000000000000000 3.2875177838090486 3.5921857292003385 1.3050014355826236 1.1523826099935806 1233.7515861025038 1233.7498393551907 1.1425106615032694 
-33.465086605531532 -134.85393337475395 131.10930292066320 -33.465086605531525 -134.85393337475395 131.10930292066317 -355.80400537843343 -2.4082068069119542e-06 3.1866247103688968e-05 8.4120591751190869e-05 -271.06483086727383 1.5232259897857148e-13 3.1752378504279477e-14 2.1376393988248313e-08 -0.0026260604676394774 -3.0868271946196588e-10 -5.9281943943782853e-10 1.9637952610472561e-10 -0.0023079987811387638 -32.495446914399992 -133.95681332000001 137.60295016000006 48.530522504776933 0.0000000000000000 0.0000000000000000 0.0000000000000000 0.0000000000000000 3.3530082470120117 3.7370723524699669 1.3847547199963730 1.1755680467695715 1313.1731643761811 1313.1734807143073 1.1765408835701907 
-29.295923136329417 -137.37815392013209 134.08783859898861 -29.295923136329410 -137.37815392013206 134.08783859898861 -379.11905646038946 4.4808447729183476e-05 4.1426757480989187e-05 5.2370599419888557e-05 -400.62095226777524 1.4221956945448255e-13 3.4416913763379853e-14 2.0482776363905941e-08 -0.0027415497117917920 9.5357789481248191e-11 -5.7403759968302436e-10 -2.1425185195273065e-10 -0.0027840520437079652 -28.418203856399998 -136.43877710800004 140.31002455199999 44.353383947079159 0.0000000000000000 0.0000000000000000 0.0000000000000000 0.0000000000000000 3.3004238311477376 3.6190076923766550 1.3188514247459646 1.1585123288470247 1258.7941536216681 1258.7941824963987 1.1483729384158710 
-27.608889583522625 -130.32300713079937 137.98096471888849 -27.608889583522622 -130.32300713079937 137.98096471888854 -414.69519145019746 2.5369286082858531e-05 3.0223840824484056e-05 2.8117970622958762e-05 0.0000000000000000 1.3467005288703149e-13 9.9920072216264089e-15 1.9314740029585661e-08 -0.0024338480704708082 -2.1103678981977650e-10 -3.7105960031573462e-10 1.2159795911201428e-10 0.0000000000000000 -26.768365491316434 -129.50173712462359 143.84833436668455 49.139845408488213 0.0000000000000000 0.0000000000000000 0.0000000000000000 0.0000000000000000 3.3069893874706029 3.6376226975087183 1.3311140463119164 1.1594090282260157 1347.9117850142693 1347.9119184915942 1.1536717809906305 
-41.209140083490119 -65.207269884840287 149.09933005099350 -41.209140083490112 -65.207269884840315 149.09933005099353 -627.89704528994673 -1.8615403376341119e-05 -2.1836674661297399e-06 3.8330827875105960e-05 -634.30227505991559 1.8007817459420039e-13 -5.5511151231257827e-15 1.5979029654999977e-08 -0.0015741680291936912 7.4156909192148264e-11 -1.3233915305425925e-10 2.8653352182394453e-10 -0.0016038059528256975 -40.068761925200000 -65.476070995999990 153.95338104800004 156.95717166164070 0.0000000000000000 0.0000000000000000 0.0000000000000000 0.0000000000000000 3.2844931734608100 3.5874184362288806 1.3033008001234936 1.1403193847382931 1661.7145451130784 1661.7151049583817 1.1416406613236201 
-53.845743950639381 -59.287881535752653 143.93950092613002 -53.845743950639381 -59.287881535752639 143.93950092613002 -638.14979438547891 -2.3796679276712323e-05 -4.1695733422301024e-06 2.6749325274864837e-05 -641.67841171284533 2.2781776465308212e-13 -6.6613381477509392e-15 1.7527060691691076e-08 -0.0014067647356820995 -8.7616494942578378e-11 -1.0077809279257020e-10 3.5450063697008821e-10 -0.0014235412399440420 -52.426757905599978 -59.655776269200025 149.26381449600007 118.05125250056595 0.0000000000000000 0.0000000000000000 0.0000000000000000 0.0000000000000000 3.2959440456426923 3.6122275835653830 1.3166886533662310 1.1407931995425977 1700.8607985272113 1700.8586165070349 1.1475164947985912 
-36.202919843815138 -65.770396080181698 139.24766772385212 -36.202919843815145 -65.770396080181712 139.24766772385212 -606.32166004608086 -4.1161711657653095e-06 2.1431788167479791e-06 6.1027584492011590e-08 -606.07050080968099 1.6298074001497301e-13 -1.0880185641326536e-14 1.8934720458219090e-08 -0.0013720003958973836 8.4664110315161787e-11 -1.4753930579829427e-10 3.6533687684232870e-10 -0.0014198344218503496 -35.172917262399999 -66.029770167599992 144.99959110400002 155.12084301790807 0.0000000000000000 0.0000000000000000 0.0000000000000000 0.0000000000000000 3.2930711048716881 3.6042041978267156 1.3114573148357740 1.1433579872518083 1640.8792841588281 1640.8793867771190 1.1451938227063327 
-51.786410756112261 -66.340294495213826 136.17115652357137 -51.786410756112240 -66.340294495213826 136.17115652357140 -619.31627244390450 -2.2240957445556395e-05 1.5550797363536318e-05 1.5075365348555346e-05 0.0000000000000000 2.2115642650533116e-13 -1.1324274851176597e-14 1.9857736788253536e-08 -0.0012633029318884759 4.8816042758868821e-11 -2.0218578804618346e-10 3.3983161044769469e-10 0.0000000000000000 -50.412828244765279 -66.590128188430739 142.20347059834828 136.07757377940416 0.0000000000000000 0.0000000000000000 0.0000000000000000 0.0000000000000000 3.2652548644128241 3.5414734611990757 1.2762104981225415 1.1330230428507968 1607.0793653697253 1607.0798726086311 1.1296307411174882 
-96.928581809019619 -160.03542235537398 65.118909341998545 -96.928581809019619 -160.03542235537401 65.118909341998560 -1177.2369151905409 -3.1579319079651370e-05 -4.8793062517057495e-05 -6.9724057588664698e-05 -1179.0786953615586 3.7836400679225335e-13 2.9087843245179101e-14 4.1174864406912093e-08 -0.0014326998747612085 8.8815588624457826e-10 -9.1260257995472132e-10 5.8201342433912218e-10 -0.0013690176421139093 -94.559718839999974 -158.71675115199997 77.626866652000004 109.98746742214213 0.0000000000000000 0.0000000000000000 0.0000000000000000 0.0000000000000000 3.2893080732118425 3.5969282646507419 1.3079513922317254 1.1442391270146897 2627.4466702210257 2673.4181234019129 1.1436445702821543 
-91.941038654676007 -159.78081412593775 70.412885081978061 -91.941038654676035 -159.78081412593775 70.412885081978075 -1084.6153077109723 -0.00011537108753390538 -0.00011145872099777174 -0.00014190090617484369 -1056.7347548920113 3.5615954629975022e-13 3.3084646133829665e-14 3.9586559807958117e-08 -0.0018764030146332907 7.6439574788056222e-10 -9.5465153776885756e-10 2.2355137799080604e-10 -0.0020097016409771247 -89.682139475999989 -158.46640519600001 82.438353807199988 112.88451412247700 0.0000000000000000 0.0000000000000000 0.0000000000000000 0.0000000000000000 3.2930756918507758 3.6038457163428741 1.3110709976752941 1.1442391270146897 2459.8854966211684 2478.6859248211281 1.1449636873090365 
-105.26247257990831 -156.19847740522559 75.001741924342781 -105.26247257990828 -156.19847740522562 75.001741924342738 -1068.0460581272371 -2.8026057062181815e-05 -2.7103276335272811e-05 -0.00015531801204832644 0.0000000000000000 4.1078251911130792e-13 1.8429702208777602e-14 3.8209812203149334e-08 -0.0011747524262727127 5.3795106363908314e-10 -1.0063612870814946e-09 1.0135324134157128e-09 0.0000000000000000 -102.70986659571734 -154.94403864466588 86.608986019839278 111.02505284862640 0.0000000000000000 0.0000000000000000 0.0000000000000000 0.0000000000000000 3.2953011901556932 3.6098375435612846 1.3148747989006189 1.1405296468451731 2458.3314662842372 2386.6976330423731 1.1467848376167891 
-102.90775457548169 -168.63657217856360 71.768121556707683 -102.90775457548169 -168.63657217856360 71.768121556707683 -1141.5180689460590 -1.4847120984779433e-05 -3.4923791562686102e-05 -0.00015007930719116230 0.0000000000000000 3.9923619965520634e-13 3.4861002973229915e-14 3.9179958832846751e-08 -0.0019548396718320894 4.8843264571189007e-10 -8.3324842567729984e-10 -3.5123520950264011e-10 0.0000000000000000 -100.40706467681501 -167.17391327890167 83.670075146830683 105.53983917324770 0.0000000000000000 0.0000000000000000 0.0000000000000000 0.0000000000000000 3.2898676136363751 3.5981460663998379 1.3086090194775928 1.1412248870447028 2558.6925352513076 2482.4749312489298 1.1439564382132845 
-117.44527074895164 -100.12153314031005 85.964122058544788 -117.44527074895161 -100.12153314031004 85.964122058544802 -860.35464477982157 -2.6103929282730824e-05 -3.8501254775504421e-05 -0.00011196865503586321 -873.32739593802273 4.5562734711476346e-13 6.6613381477509392e-15 3.4920873304145068e-08 0.0023259455216988788 -1.6217774756243278e-11 -8.2028218484090339e-10 1.7303614766620758e-09 0.0024059255398076571 -114.62406224400000 -99.805851428000011 96.572263865600007 85.211636250682801 0.0000000000000000 0.0000000000000000 0.0000000000000000 0.0000000000000000 3.2996939848907805 3.6163884218271103 1.3166790091783189 1.1311057073549493 2089.2660529114660 2089.2705242001070 1.1473826674766330 
-113.82904112203343 -91.265061774962064 89.979043319733591 -113.82904112203344 -91.265061774962064 89.979043319733591 -803.37657826896782 -1.0948699893708447e-05 -1.8603276101170430e-06 -0.00012007543574401776 -795.69115110623375 4.4098058538111223e-13 7.3274719625260347e-15 3.3716315073206715e-08 0.0022527070908669525 -8.8566584909102193e-11 -7.9329243663055243e-10 2.4952927896504403e-09 0.0020768683357478561 -111.08756211600000 -91.097641973600034 100.22126851279998 99.535403830130534 0.0000000000000000 0.0000000000000000 0.0000000000000000 0.0000000000000000 3.3162198347001381 3.6549765485493828 1.3392881644596104 1.1388372819459971 2021.4645654634403 2021.4680256238910 1.1574926134377834 
-115.68678603642341 -97.934880911124850 98.963414283808760 -115.68678603642341 -97.934880911124836 98.963414283808774 -724.58609017626759 -1.1473136218494670e-05 -8.9905330498514804e-06 -0.00010932012923563146 -723.63762974638428 4.4675374510916304e-13 1.0214051826551440e-14 3.1020817914395593e-08 0.00068568166722094944 -1.3938442532898473e-10 -7.2755984851932341e-10 1.1462589443010581e-09 0.00058868106318297174 -112.90434805199999 -97.655804887999992 108.38681131359999 128.09762094244454 0.0000000000000000 0.0000000000000000 0.0000000000000000 0.0000000000000000 3.2948971401800971 3.6113720502567550 1.3169045608550651 1.1391830413534905 1856.0397649028457 1856.0351480724569 1.1475791714907937 
-109.80747916648740 -104.22558700370665 90.340921055358308 -109.80747916648747 -104.22558700370658 90.340921055358237 -790.53622852424064 -0.00012751502327403713 -1.2103725607326253e-05 -0.00012665326196254335 0.0000000000000000 4.2632564145606011e-13 7.3274719625260332e-15 3.3607740590468893e-08 0.0012373366880939147 1.1639316228173177e-09 -7.0005756195420422e-10 1.4385124800700270e-09 0.0000000000000000 -107.15466629968294 -103.84120130723400 100.55016500991876 102.24201981555134 0.0000000000000000 0.0000000000000000 0.0000000000000000 0.0000000000000000 3.2521664980063041 3.5061036139231159 1.2535899690909063 1.1190749086507106 1866.7058810331598 1866.6990981981346 1.1193836705230789 
-27.838357323389147 -115.80231656676163 93.105714097813490 -27.838357323389129 -115.80231656676155 93.105714097813532 -213.61203288926447 9.0751848219980865e-05 3.2988004576337962e-05 -0.00011685035799485862 0.0000000000000000 -1.5608643450251248e-06 -5.1438432180539192e-06 6.5797141031973577e-06 -0.0013891962250643717 -2.1941311373252941e-10 -1.1129991656390867e-09 7.2352171813956884e-11 0.0000000000000000 -26.889884864405381 -115.37486796036181 103.37575244326078 96.382960025775517 0.0000000000000000 0.0000000000000000 0.0000000000000000 0.0000000000000000 3.3950649105613548 3.8281528253134769 1.4338881136953818 1.1961162603309397 1103.8393170547349 1104.3967384354701 1.1973936709640725 
-112.27556256505493 -104.00242318269547 147.16731681318112 -112.27556256505494 -104.00242318269551 147.16731681318109 -644.22917402268286 2.1862749096565726e-06 7.3628809391409597e-06 8.1772176313430637e-07 -647.28744084254811 4.4009240696141205e-13 1.0658141036401503e-14 1.6558672655264672e-08 -0.0019676990958513657 -2.5257073748640765e-11 -1.5753449976293488e-10 1.1457441792122127e-10 -0.0019586928949506355 -109.56833416800004 -103.62177336400003 152.19744990400002 70.302883591683823 0.0000000000000000 0.0000000000000000 0.0000000000000000 0.0000000000000000 3.2805565403940218 3.5762165023804049 1.2958677924961675 1.1387667107025476 1681.4243311791108 1681.4121464537818 1.1383936044478900 