# For a description of the Tecplot format see the Tecplot User's guide.
#
Variables=x,y,z,s_u,s_v,s_w,s_p,mono_f_vel_u,mono_f_vel_v,mono_f_vel_w,const,u_nu,v_nu,w_nu,p_nu,x_nu,y_nu,z_nu,const,u_ref,v_ref,w_ref,vol_ref,x_ref,y_ref,z_ref,const,I1,I2,I3,J,p1,p2,p3
Zone f=fepoint, n=3174, e=16683, et=brick, c=black
-25.0601 -154.405 110.570 -25.060118984784648 -154.40528183147342 110.57033388231820 -142.24566051274326 -9.5340782103569230e-06 -3.9853339720757526e-05 -4.0687000577320708e-05 -138.75442870441989 4.0200817952307233e-09 2.7480512310162912e-09 3.0158938675306497e-06 0.00079265242120219034 3.1742171866970137e-11 8.8719033782152786e-11 9.7514828844508098e-11 0.00077929724735979538 -24.903554063199991 -154.16086777200002 112.24023381839994 89.724962256112903 0.0000000000000000 0.0000000000000000 0.0000000000000000 0.0000000000000000 3.0547097496560194 3.1099140031250481 1.0552023407434492 1.0281576839269009 357.34523459943762 357.34780902631496 1.0272235925809825 
-37.671931809325621 -155.47495336293065 113.27531609801117 -37.671931809325635 -155.47495336293062 113.27531609801113 -123.95487516863388 3.1807397594345782e-05 -3.5176950426316679e-05 -2.1190064120718320e-05 0.0000000000000000 -4.2863637860551630e-09 1.0258853061951283e-06 2.5764734100280894e-06 0.00076412292020261831 -7.7897767975451736e-11 4.0118686033889903e-11 4.7678589491441260e-11 0.0000000000000000 -37.438273663334591 -155.10473791080037 114.93291110338620 89.036758072416930 0.0000000000000000 0.0000000000000000 0.0000000000000000 0.0000000000000000 3.0765330400076651 3.1546865944381000 1.0781618620203626 1.0362850472437002 370.55441458205422 370.55331267068266 1.0383571714195157 
-31.728532693285299 -148.10242506913278 118.33267073421823 -31.728532693285281 -148.10242506913266 118.33267073421815 -111.52752147817637 1.0516024919209397e-05 -2.5628651992256421e-05 -5.5856430659485348e-06 0.0000000000000000 4.7736479491522488e-09 2.5112331103471774e-09 2.7608475638984946e-06 0.00074391336390622071 -2.0446717595764221e-11 5.2493707256649431e-11 8.9072585940558678e-12 0.0000000000000000 -31.542619574254449 -147.87907313389167 119.86135157363466 98.260374494724786 0.0000000000000000 0.0000000000000000 0.0000000000000000 0.0000000000000000 3.0636327197536377 3.1282699154698528 1.0646396848719208 1.0327629823348490 330.12795821065021 330.12782331603921 1.0317999097230866 
-28.820771618400574 -143.17426519241914 110.45247684664274 -28.820771618400585 -143.17426519241914 110.45247684664267 -110.09905071480567 1.2754626687316953e-05 -3.1248569150381870e-05 -2.1560176772085251e-05 0.0000000000000000 4.4450567115994480e-09 2.3260611214936944e-09 3.0197662748143728e-06 0.00076352177635854903 -1.7710764342780642e-11 8.7687033408940837e-11 4.7812208786756395e-11 0.0000000000000000 -28.647655777685479 -142.96738158566356 112.12452093910819 112.69127588814607 0.0000000000000000 0.0000000000000000 0.0000000000000000 0.0000000000000000 3.0670770023762803 3.1353802526630701 1.0683093346052777 1.0329286331208585 331.99418616507677 331.99368331449472 1.0335901805100571 
-24.415588490108103 -200.83171599265606 71.342989009023370 -24.415588490108100 -200.83171599265603 71.342989009023370 -329.61607251500351 1.3109089366761528e-06 4.8055281388299487e-08 9.6427603699277166e-07 -331.01004453285231 3.9472477092461489e-09 4.4923583741862672e-09 4.3047827067432820e-06 0.0011866027603421375 6.6326542892848474e-12 -1.4410746301546991e-12 -1.4144745982868792e-12 0.0011863953797661723 -24.261860196399997 -200.43215969199997 73.726546483199982 142.71380061529433 0.0000000000000000 0.0000000000000000 0.0000000000000000 0.0000000000000000 3.0530458473219539 3.1067363170852036 1.0536927085581309 1.0264625237333649 686.48791235240503 686.49578476668694 1.0264953965098036 
-24.310664277042019 -187.99574029792797 72.955663925325410 -24.310664277042015 -187.99574029792799 72.955663925325425 -324.99125178603083 5.7849883187012754e-06 -8.1616566410950700e-06 -2.5154101712347847e-06 -326.51344196175745 3.9353890007864933e-09 4.0101132414704921e-09 4.2517952101306378e-06 0.0011783445889383490 -7.8791890624568860e-12 2.0240910109689776e-11 1.3298680823460454e-11 0.0011821998694738901 -24.157397762799999 -187.63907770800003 75.309882232799993 165.73632395326644 0.0000000000000000 0.0000000000000000 0.0000000000000000 0.0000000000000000 3.0530479660066492 3.1067362781586749 1.0536905079504368 1.0264625237333651 678.76491434686238 678.77817165563476 1.0264941145986624 
-35.086232886914516 -195.79405097690699 79.358954981998409 -35.086232886914530 -195.79405097690690 79.358954981998480 -322.65438197848221 2.2597608661942527e-06 -6.3824750915843272e-06 -1.2948912229759054e-05 0.0000000000000000 5.1530886779893592e-09 4.3030849994352138e-09 4.0414029278679209e-06 0.0011854988190645990 4.6157727178221259e-12 2.2637811759736789e-11 7.4267833668914739e-12 0.0000000000000000 -34.885542273181727 -195.41132893576267 81.596679120775832 139.46796289390394 0.0000000000000000 0.0000000000000000 0.0000000000000000 0.0000000000000000 3.0525879038797830 3.1058139100506312 1.0532282486665638 1.0259862664699615 673.78909869119786 673.78277461684866 1.0262689158361906 
-18.952284838544280 -194.90946604391183 79.171826456933005 -18.952284838544291 -194.90946604391175 79.171826456933061 -327.24376802446028 2.8996966914049613e-06 -3.9872635583836967e-06 -6.0346048807801442e-06 0.0000000000000000 3.3298636903378313e-09 4.2698664604046144e-09 4.0475513873872160e-06 0.0011752768096287727 -3.8218302769711167e-12 1.7626787229483068e-11 6.0653061305976293e-12 0.0000000000000000 -18.822600960987238 -194.52970000168264 81.412954998504986 111.95285379220412 0.0000000000000000 0.0000000000000000 0.0000000000000000 0.0000000000000000 3.0531402191973442 3.1069241054983516 1.0537861164244466 1.0264625237333644 685.08981060197289 685.06029973995601 1.0265410152941221 
-22.810646897321636 -103.28148408894420 40.290184800470769 -22.810646897321639 -103.28148408894421 40.290184800470769 -325.01508247673075 -8.9266615097475485e-06 1.0160477714801059e-05 -1.3795916591745221e-05 -327.72468111324957 3.7658808710316904e-09 8.2723650152161089e-10 5.3250814948668790e-06 0.0012504398625400029 1.0432889927060867e-11 -4.6063820662551413e-11 6.3677392693871216e-11 0.0012660326154216534 -22.663982073999996 -103.20790935200000 43.238681550399988 69.202643319072678 0.0000000000000000 0.0000000000000000 0.0000000000000000 0.0000000000000000 3.0529418936390482 3.1065252947094057 1.0535856242680426 1.0264625237333622 679.06417753563289 679.07781830943850 1.0264433205222432 
-30.331425028014454 -110.87204690548649 44.109748016327927 -30.331425028014454 -110.87204690548650 44.109748016327920 -317.50092455539442 7.9203805856421467e-07 1.6177165485658523e-05 -1.8711514902065417e-05 -314.77752531958083 4.6157698219140286e-09 1.1124203225243434e-09 5.1995825032236098e-06 0.0012248481850728051 3.0364340860191145e-11 -6.4660440734807966e-11 7.1088764176072483e-11 0.0012288864818378912 -30.151660686400003 -110.77310694400001 46.988755992800002 74.715282964229786 0.0000000000000000 0.0000000000000000 0.0000000000000000 0.0000000000000000 3.0532071490873443 3.1070585176283667 1.0538535957350175 1.0264625237333640 664.78166309046435 664.76714530802667 1.0265740944546633 
-18.864447613227565 -103.64182720798644 47.185365602547314 -18.864447613227561 -103.64182720798642 47.185365602547328 -311.93389429584391 -1.0832230269351745e-05 8.3217203004145344e-06 -1.9978852989977050e-05 -312.40879204554727 3.3199390875315866e-09 8.4076640094465915e-10 5.0985272492809486e-06 0.0012060245714407530 2.1060000169357895e-11 -5.2374668501479729e-11 6.6224334827166046e-11 0.0012098737663494221 -18.735150314000002 -103.56704831999998 50.008419303199993 79.719497061372692 0.0000000000000000 0.0000000000000000 0.0000000000000000 0.0000000000000000 3.0529629137335808 3.1065672160701427 1.0536065233784762 1.0264625237333631 655.69826113788986 655.70752898976900 1.0264533667986098 
-25.651044863609641 -98.545337238741311 48.177229092133274 -25.651044863609631 -98.545337238741325 48.177229092133295 -316.05860629729096 2.1569552015611506e-07 3.9484510617830784e-06 -3.0803547695620854e-05 0.0000000000000000 4.0868598782939366e-09 6.4928235010697222e-10 5.0659376960027211e-06 0.0012267000106435386 1.3244015615408829e-11 -3.1834272256571844e-11 6.9682848567476145e-11 0.0000000000000000 -25.491879232152165 -98.487589184379729 50.982237960580505 72.292163684038698 0.0000000000000000 0.0000000000000000 0.0000000000000000 0.0000000000000000 3.0529149536190512 3.1064737223589227 1.0535610122653667 1.0264625237333631 662.08735617879893 662.07070194704295 1.0264310245190851 
-25.485228581217143 -104.27228202483504 107.00804815056652 -25.485228581217143 -104.27228202483504 107.00804815056652 -109.35895266199663 9.9699164045770368e-06 3.3712469523872857e-05 -6.6062685820636828e-06 0.0000000000000000 1.8530048472793755e-07 -4.4743783833709532e-07 3.3572329050444418e-06 0.00076045549954909008 -2.0201721134934303e-11 -8.2649405912039022e-11 4.8842469382497582e-11 0.0000000000000000 -25.283559732051039 -104.23282252886388 108.75695162467670 96.378087069502698 0.0000000000000000 0.0000000000000000 0.0000000000000000 0.0000000000000000 3.0638987264608630 3.1286538346256902 1.0647534841742219 1.0337102627311463 319.98145146919040 319.98145302030861 1.0318535787794294 
-26.125729538251225 -118.09345957438967 108.93933880791609 -26.125729538251225 -118.09345957438971 108.93933880791609 -85.422070556323860 1.6576956534854425e-05 3.8544297687614490e-06 -1.3125339431733259e-05 0.0000000000000000 1.4293280541636641e-07 -3.4258013262191127e-07 3.3064762766643092e-06 0.00072656400280848149 -5.7877071136520512e-11 9.4768903030139996e-12 6.2842477373084759e-11 0.0000000000000000 -25.913646985361510 -118.01095136745833 110.66456878241424 88.846747377876298 0.0000000000000000 0.0000000000000000 0.0000000000000000 0.0000000000000000 3.0866359595649477 3.1751580287768455 1.0885310763907947 1.0402514358044266 322.93327150601851 322.93327115232938 1.0433430147272134 
-36.558625795914899 -112.70930965063557 110.35572264497591 -36.558625795914878 -112.70930965063555 110.35572264497583 -87.075809171113178 -9.3305608074938125e-06 2.2048696119047266e-05 1.4316254405071934e-05 0.0000000000000000 5.5172007609278296e-07 -8.8917809892157064e-07 3.3057931241199384e-06 0.00072177893009890172 3.1865735122496707e-11 -5.8460369209330343e-11 -3.6454367213966591e-11 0.0000000000000000 -36.236867317722961 -112.72601430119678 112.03758904139967 95.996160021407249 0.0000000000000000 0.0000000000000000 0.0000000000000000 0.0000000000000000 3.0892076006289231 3.1804426762039371 1.0912467425474472 1.0426649578281659 331.20206767268593 331.20207133488771 1.0446299989303751 
-33.651685593000060 -105.05724612025710 103.77690952988556 -33.651685593000046 -105.05724612025718 103.77690952988554 -108.30269011187978 8.6269572660264358e-07 3.8733624860572806e-05 -1.0596144096556881e-05 0.0000000000000000 5.9677379069189489e-07 -9.5546116006081520e-07 4.1031433237738369e-06 0.00076159199730104312 5.7651341113387847e-12 -8.7349569500262476e-11 4.4814971715752545e-11 0.0000000000000000 -33.380789828628046 -105.09637623893835 105.63342596379557 85.433794965156210 0.0000000000000000 0.0000000000000000 0.0000000000000000 0.0000000000000000 3.0783269282986043 3.1579965218501500 1.0796718797270233 1.0373634729479686 338.17705481310367 338.17705566528258 1.0390699302207056 
-112.76196978549341 -160.92969616198374 123.22458815769717 -112.76196978549341 -160.92969616198371 123.22458815769716 -219.94126094618196 1.4545230166897974e-06 -4.5992123812492656e-06 -1.2123328627284948e-05 -219.32747856772218 1.3930863629330048e-08 2.9931872536081983e-09 2.6001143256237920e-06 0.00093921714878425456 -4.0593680785803354e-12 1.1762357016535775e-11 2.3343873112292680e-11 0.00094010314234536224 -112.21942232800005 -160.66347960400000 124.66427103520003 147.55923210393107 0.0000000000000000 0.0000000000000000 0.0000000000000000 0.0000000000000000 3.0574207629340511 3.1157169859188749 1.0582999859239171 1.0264625237333613 504.54403834711496 504.54404426276409 1.0287514598806304 
-100.01908250964351 -158.35229266220298 114.99544668279037 -100.01908250964348 -158.35229266220298 114.99544668279033 -225.23076729409988 -1.1023104555957002e-05 -8.0135106884922670e-06 -2.3556450546384380e-05 0.0000000000000000 1.2490851464264098e-08 2.8963537124226946e-09 2.8704983865424087e-06 0.00094495187506144602 3.8661466834236979e-11 2.8372463992977844e-12 -2.3895725287687498e-11 0.0000000000000000 -99.532617471171264 -158.09468895943013 116.58484116745363 117.70414803503969 0.0000000000000000 0.0000000000000000 0.0000000000000000 0.0000000000000000 3.0420769461891131 3.0839279408804567 1.0418456162131953 1.0217824907978075 481.77599888531637 481.77599557485564 1.0206965124501435 
-104.85029010438470 -149.08160384902979 119.38217326289066 -104.85029010438470 -149.08160384902979 119.38217326289075 -214.76794185880746 -9.5705795179554858e-06 -8.8668731003369065e-06 -1.0982710100059040e-05 0.0000000000000000 1.3036803858668122e-08 2.5480131338184719e-09 2.7263641655395072e-06 0.00093251050227719542 1.6517077489723487e-11 2.2543561531137584e-11 -1.4359288918315951e-11 0.0000000000000000 -104.34256255272837 -148.85497981259945 120.89176065121424 119.29379793442074 0.0000000000000000 0.0000000000000000 0.0000000000000000 0.0000000000000000 3.0428739014642527 3.0858337173331858 1.0429589328148754 1.0221300616460551 465.47826073457327 465.47824929045368 1.0212385057671087 
-101.02128550508179 -162.55470152207215 123.12634523678777 -101.02128550508179 -162.55470152207218 123.12634523678786 -217.50781997625788 -6.3123141154378340e-06 -1.2498928289156172e-05 -1.0954174898372514e-05 0.0000000000000000 1.2604100929625160e-08 3.0542194329186141e-09 2.6033422808602329e-06 0.00093308141763078151 1.3533819534640040e-11 1.8364963646002029e-11 7.6902067857091685e-12 0.0000000000000000 -100.53040969477119 -162.28305471776312 124.56781543385799 141.51484144144280 0.0000000000000000 0.0000000000000000 0.0000000000000000 0.0000000000000000 3.0441044009793594 3.0884800059009629 1.0443752423299051 1.0224744242563768 472.43608843799854 472.43609004291687 1.0219363095525660 
-78.793577545489214 -149.02386909340865 87.355993773892777 -78.793577545489228 -149.02386909340865 87.355993773892791 -229.99576273877622 -2.7699746814247423e-05 -1.9322697463508059e-05 -9.3627441085646615e-06 -230.03129091300994 1.0092248314830243e-08 2.5458685715129548e-09 3.7786450506338554e-06 0.00099270100912166948 8.7072212156178304e-11 8.5584900151830515e-11 4.5422141188827438e-11 0.0010068525494282437 -78.400527573600002 -148.79743798799998 89.448228916799977 108.06316173413846 0.0000000000000000 0.0000000000000000 0.0000000000000000 0.0000000000000000 3.0565998195009052 3.1139442905030732 1.0573477254409538 1.0264625237333636 521.12998249405348 521.12992122233504 1.0282843007340576 
-80.550144043852171 -162.80713467086724 85.649732811080725 -80.550144043852171 -162.80713467086724 85.649732811080710 -273.18224340350059 -1.6266499605113600e-05 -3.1335908296056488e-05 -1.7231951917681983e-05 -274.58558044220132 1.0290763741149789e-08 3.0637172798719803e-09 3.8347074857725261e-06 0.0010934924204452341 -1.3119326196697172e-11 1.2073298043925616e-10 5.7185208292122095e-11 0.0011189350708023615 -80.149363288800018 -162.53464431600008 87.773009718400019 109.57810873427631 0.0000000000000000 0.0000000000000000 0.0000000000000000 0.0000000000000000 3.0571633523277204 3.1150304713575276 1.0578696227037485 1.0264625237333636 597.83125137004959 597.83137398957297 1.0285424908154286 
-84.714587400773979 -160.44904374857359 92.983337551479366 -84.714587400773965 -160.44904374857370 92.983337551479366 -253.61313872137004 -1.2020278454313439e-05 -2.1701488899389774e-05 -3.2198358994630998e-05 0.0000000000000000 1.0761355528909888e-08 2.9751161534363746e-09 3.5937479898606739e-06 0.0010531060887839947 5.5014374409474712e-11 5.0536144434318688e-11 7.5225991078954080e-11 0.0000000000000000 -84.295478612813938 -160.18443337667750 94.973195224810283 106.11323630727971 0.0000000000000000 0.0000000000000000 0.0000000000000000 0.0000000000000000 3.0429133251944056 3.0862830771954850 1.0433706880223925 1.0224067579733918 531.09077468986300 531.09084763119051 1.0214362033406177 
-86.902749740145083 -151.62527327917391 90.601290973522211 -86.902749740145069 -151.62527327917397 90.601290973522225 -245.88827493842791 -1.3482463803210294e-05 -2.8134138080885236e-05 -3.1169613565605203e-05 0.0000000000000000 1.1008641775944737e-08 2.6436024480602786e-09 3.6720146585622615e-06 0.0010244617541556669 3.8803481638860180e-11 7.9346528299875876e-11 4.1481977513204377e-11 0.0000000000000000 -86.474010682800568 -151.39014911596544 92.634484883397832 94.367740677547317 0.0000000000000000 0.0000000000000000 0.0000000000000000 0.0000000000000000 3.0481898135699059 3.0969607927852585 1.0487732244878289 1.0233304872117508 526.67146726402882 526.67100844800905 1.0240959247127737 
-26.180150797034532 -132.60245110939167 137.46399723014054 -26.180150797034532 -132.60245110939169 137.46399723014059 -141.77923147814505 1.0371148779301637e-05 -8.9803084908872411e-06 4.0909384187661723e-05 -148.44020309464807 4.1466517164412409e-09 1.9288710628728722e-09 2.1322515300070677e-06 0.00076091345509218290 -2.4692275202537368e-12 -3.3563973141581439e-12 -3.5948701365733891e-11 0.00074728126098435189 -26.018656529999991 -132.43089511199997 138.64462455200004 49.421240865332216 0.0000000000000000 0.0000000000000000 0.0000000000000000 0.0000000000000000 3.0524258611270034 3.1054628640918382 1.0530394692980312 1.0283702087045858 357.92809245025330 357.92726178509105 1.0261854881196002 
-32.685572036590649 -134.13348554304321 136.40302064108991 -32.685572036590649 -134.13348554304321 136.40302064108985 -136.45569389714939 -1.3601570809975736e-06 6.1981819684356401e-06 2.4267148794643178e-05 -118.73160540208634 4.8818021292085234e-09 1.9863922173790627e-09 2.1671119223576341e-06 0.00075217282731051096 9.8978394848444884e-12 -1.0514482507291948e-12 -7.3470945632367030e-12 0.00086853134288985309 -32.495446914399992 -133.95681332000001 137.60295016000006 48.530522504776933 0.0000000000000000 0.0000000000000000 0.0000000000000000 0.0000000000000000 3.0668679437810638 3.1348487406881986 1.0679854900879844 1.0334390839634979 379.23802627341871 379.23788086714200 1.0334167304656210 
-28.590305397696156 -136.62377106593814 139.16025704508371 -28.590305397696167 -136.62377106593814 139.16025704508368 -143.07269467756458 1.2816664972486303e-05 7.2233430527789864e-06 1.2831742585108328e-05 -149.43413406364357 4.4190112402642256e-09 2.0799587052700023e-09 2.0765177008996716e-06 0.00075902621404986203 9.1875367164293345e-12 -3.4241890233983399e-11 -1.9879859941157150e-11 0.00074141358383073344 -28.418203856399998 -136.43877710800004 140.31002455199999 44.353383947079159 0.0000000000000000 0.0000000000000000 0.0000000000000000 0.0000000000000000 3.0555464071984324 3.1117410946618071 1.0561965097692787 1.0299072456391594 367.92978765859300 367.92994124305881 1.0277087749452904 
-26.933173870342660 -129.66347199716483 142.76413164065744 -26.933173870342667 -129.66347199716483 142.76413164065750 -151.21026313758901 4.6338278884501209e-06 5.7625789107519667e-06 8.2958885481666368e-06 0.0000000000000000 4.2317478410325293e-09 1.8184421191058675e-09 1.9581055639150691e-06 0.00076533777730074151 -5.0361916650168379e-12 -9.1462780224328512e-12 1.7860239629955444e-11 0.0000000000000000 -26.768365491316434 -129.50173712462359 143.84833436668455 49.139845408488213 0.0000000000000000 0.0000000000000000 0.0000000000000000 0.0000000000000000 3.0567404305025643 3.1143245016141416 1.0575873438699899 1.0299760259402146 387.04706748621089 387.04351610559752 1.0283861513690200 
-40.292365124070130 -65.423135282866156 153.05642455145372 -40.292365124070116 -65.423135282866156 153.05642455145374 -203.89820744867572 -4.8424729700312833e-06 -1.7845058210540045e-07 8.0367068772175121e-06 -205.30587786475064 5.7414112630826972e-09 -5.9518207029540814e-10 1.6199327426136281e-06 0.00087089117540110450 2.5895729450917919e-11 -1.4185192838252858e-11 -1.3682935806113658e-11 0.00087654955421721120 -40.068761925200000 -65.476070995999990 153.95338104800004 156.95717166164070 0.0000000000000000 0.0000000000000000 0.0000000000000000 0.0000000000000000 3.0515544669827004 3.1037487547600642 1.0521968852511439 1.0256439939555859 464.50834135553754 464.50803446547883 1.0257672593495397 
-52.704990013533930 -59.583325787171873 148.27996046375154 -52.704990013533923 -59.583325787171852 148.27996046375159 -206.62416452028305 -4.9680663760543888e-06 -1.2928425232698161e-06 6.3574458734103444e-06 -207.27904329346663 7.1441053350884687e-09 -8.1458884082508121e-10 1.7768725393274565e-06 0.00088799789311234186 1.9876847024380220e-11 -1.3766806905988104e-12 -1.8177184960289006e-11 0.00088911925032810260 -52.426757905599978 -59.655776269200025 149.26381449600007 118.05125250056595 0.0000000000000000 0.0000000000000000 0.0000000000000000 0.0000000000000000 3.0542311778511388 3.1091829606845427 1.0549546010410487 1.0257830660228373 474.94377283671537 474.93554194847644 1.0271117502603744 
-35.374878226291351 -65.978690943162690 143.93672113278589 -35.374878226291351 -65.978690943162718 143.93672113278586 -198.84565720225331 -1.5201429318769824e-06 8.7076878935412580e-07 5.9174331500515185e-07 -198.73760847474645 5.1857089178319882e-09 -5.7430132871516548e-10 1.9195779037417537e-06 0.00086153225692490185 1.1119899975420721e-11 -1.1957706254308116e-11 1.1855861632059981e-11 0.00085726338276682099 -35.172917262399999 -66.029770167599992 144.99959110400002 155.12084301790807 0.0000000000000000 0.0000000000000000 0.0000000000000000 0.0000000000000000 3.0536588731618148 3.1079512679760759 1.0542946146772645 1.0263623729418472 460.68576030288574 460.68586813669850 1.0267888286938744 
-50.682157713430115 -66.540927779034206 141.08878859317039 -50.682157713430115 -66.540927779034220 141.08878859317034 -202.25561587611412 -5.0426491045205755e-06 2.6136321354509075e-06 3.9585083230181783e-06 0.0000000000000000 6.9155139947874042e-09 -5.5318533087600485e-10 2.0131521227817473e-06 0.00087819303977077141 2.4730785743882202e-11 -1.4020603251587073e-11 5.3499756600895881e-12 0.0000000000000000 -50.412828244765279 -66.590128188430739 142.20347059834828 136.07757377940416 0.0000000000000000 0.0000000000000000 0.0000000000000000 0.0000000000000000 3.0475186534171423 3.0953860254497125 1.0478669826379263 1.0242670905438234 453.29008196574000 453.28735230731564 1.0236507089774767 
-95.024201024008136 -158.97644055669960 75.315582000345444 -95.024201024008121 -158.97644055669960 75.315582000345444 -314.20757603822284 -6.8057279515009312e-06 -9.1880638376741003e-06 -1.3346151118729041e-05 -314.19102255137881 1.1926408860496451e-08 2.9197959605653519e-09 4.1742556176060930e-06 0.0011327569054569975 -7.4911181299592303e-12 2.5569337366936819e-11 3.1745010478863667e-11 0.0011466308625098301 -94.559718839999974 -158.71675115199997 77.626866652000004 109.98746742214213 0.0000000000000000 0.0000000000000000 0.0000000000000000 0.0000000000000000 3.0527405576375344 3.1061196383692571 1.0533813126377340 1.0264625237333644 659.50000199191174 659.50007986978733 1.0263431436017068 
-90.125060167355926 -158.72525521992867 80.216225876579955 -90.125060167355954 -158.72525521992867 80.216225876579969 -295.21374727814413 -2.4320602717105152e-05 -2.1353250278299272e-05 -2.7421238370331195e-05 -288.72041754443939 1.1372767672046535e-08 2.9103469634250705e-09 4.0132356753375120e-06 0.0011111675375215784 1.2962005877103664e-11 5.9301053851039460e-11 7.8843661286913020e-11 0.0011186632824064413 -89.682139475999989 -158.46640519600001 82.438353807199988 112.88451412247700 0.0000000000000000 0.0000000000000000 0.0000000000000000 0.0000000000000000 3.0533078760496601 3.1072316034112553 1.0539257560143478 1.0264625237333633 625.13387165934387 625.13387155393798 1.0266069189378046 
-103.21037676365664 -155.19107858466637 84.464139786275823 -103.21037676365664 -155.19107858466634 84.464139786275794 -292.65105811471693 -5.5400094245343827e-06 -4.9156691881525911e-06 -3.1449158105412480e-05 0.0000000000000000 1.2851485320375387e-08 2.7775723943079811e-09 3.8736624023982813e-06 0.0010948693836328655 1.6321261467005258e-11 1.8022216592482062e-11 1.8669431509792888e-11 0.0000000000000000 -102.70986659571734 -154.94403864466588 86.608986019839278 111.02505284862640 0.0000000000000000 0.0000000000000000 0.0000000000000000 0.0000000000000000 3.0539538504036687 3.1085811884827321 1.0546296331845075 1.0257711918643497 626.42515790853781 626.42519118640689 1.0269556070632786 
-100.89739523660272 -167.46195856112212 81.470770977831037 -100.89739523660272 -167.46195856112209 81.470770977831037 -307.03121549093913 -3.2874234376228126e-06 -6.2287693955061746e-06 -2.9996671644137705e-05 0.0000000000000000 1.2590109788046535e-08 3.2386024972907990e-09 3.9720152127387118e-06 0.0011278558548714220 -6.2346704378695229e-13 2.8855715915511300e-11 8.8605282844570568e-12 0.0000000000000000 -100.40706467681501 -167.17391327890167 83.670075146830683 105.53983917324770 0.0000000000000000 0.0000000000000000 0.0000000000000000 0.0000000000000000 3.0529069169759571 3.1064577143944083 1.0535530374343232 1.0259063652008809 645.84844382820472 645.84846404894290 1.0264278564101093 
-115.17723948770718 -99.868019461801453 94.612036889000350 -115.17723948770715 -99.868019461801424 94.612036889000350 -253.17949440866525 -5.2113741113104685e-06 -7.0990511971688707e-06 -2.2436118614484181e-05 -255.82411673656040 1.4203804355111193e-08 6.9898276056079567e-10 3.5402339926271513e-06 0.0010479201596781821 1.2941629142161391e-11 3.9262293943830825e-11 4.5832334916450502e-11 0.0010503661089028876 -114.62406224400000 -99.805851428000011 96.572263865600007 85.211636250682801 0.0000000000000000 0.0000000000000000 0.0000000000000000 0.0000000000000000 3.0541158759566973 3.1087723914893961 1.0546558705021292 1.0238428008443683 555.49208707244202 555.44783487670907 1.0269594634490673 
-111.62510614990495 -91.130612397492939 98.328657489208240 -111.62510614990494 -91.130612397492968 98.328657489208226 -241.62296048896587 -2.3759825077333979e-06 -3.2982093857533457e-07 -2.4648354593026289e-05 -240.00732090690465 1.3802396892081960e-08 3.7069824987412403e-10 3.4181173611536049e-06 0.0010233044731635008 4.9772871289953016e-13 -3.4182120076076073e-12 6.0969581902891014e-11 0.0010083425750943178 -111.08756211600000 -91.097641973600034 100.22126851279998 99.535403830130534 0.0000000000000000 0.0000000000000000 0.0000000000000000 0.0000000000000000 3.0583976759323481 3.1176234842198123 1.0592297133905346 1.0255301175524718 543.81757342416881 543.84242422572993 1.0291990315493178 
-113.44992324515145 -97.710764066698829 106.64550756738493 -113.44992324515145 -97.710764066698843 106.64550756738490 -225.89511504900020 -2.2125376419197533e-06 -1.3475378041911238e-06 -2.1319817955281290e-05 -225.59045502441452 1.4008606830095969e-08 6.1793076211458232e-10 3.1448514721255094e-06 0.00098943393690269633 1.1090898998870285e-12 1.2489986993031319e-12 4.7161375461435765e-11 0.00098849579043404833 -112.90434805199999 -97.655804887999992 108.38681131359999 128.09762094244454 0.0000000000000000 0.0000000000000000 0.0000000000000000 0.0000000000000000 3.0540841811364938 3.1089343455512126 1.0548531226136042 1.0254794628141426 509.33019664495083 509.30580334965651 1.0270609428073116 
-107.67482484420532 -103.91689939818851 98.663648429125473 -107.67482484420539 -103.91689939818846 98.663648429125416 -238.86840247344344 -2.4110076138655210e-05 -2.2754225177509456e-06 -2.6316553808451033e-05 0.0000000000000000 1.3355989758601083e-08 8.5109874703448451e-10 3.4071106047584010e-06 0.0010205218295733999 9.2537413159356795e-11 5.9995928664587442e-12 4.8604914272899801e-12 0.0000000000000000 -107.15466629968294 -103.84120130723400 100.55016500991876 102.24201981555134 0.0000000000000000 0.0000000000000000 0.0000000000000000 0.0000000000000000 3.0439675172550400 3.0879193800229383 1.0439489633829282 1.0216340867865179 507.91556902510422 507.95068336439050 1.0217273768168154 
-27.086306800631910 -115.44417645334573 101.46432543919039 -27.086306800631895 -115.44417645334578 101.46432543919038 -98.401194208175397 2.1058191691774739e-05 1.1637977784543178e-05 -3.1430155116966108e-05 0.0000000000000000 8.8827027000719459e-08 -4.6838942812076262e-07 3.9789346669655738e-06 0.00076293382177556050 -2.2533164404393928e-11 -1.1504270816471540e-12 7.8885372916739124e-11 0.0000000000000000 -26.889884864405381 -115.37486796036181 103.37575244326078 96.382960025775517 0.0000000000000000 0.0000000000000000 0.0000000000000000 0.0000000000000000 3.0752359120752004 3.1518931958437073 1.0766624450359117 1.0376468476925091 322.20375423860168 322.20375289641817 1.0376205407603296 
-110.09916240708272 -103.69673573867166 151.26795605297022 -110.09916240708274 -103.69673573867163 151.26795605297019 -210.49302053219247 6.0187970467474038e-07 1.9761523503377832e-06 2.4436634089386786e-07 -211.28943569612250 1.3629959882965892e-08 8.4283896528702950e-10 1.6786962691028862e-06 0.00094087318293285978 -5.3463877124695620e-12 -1.5787448683728396e-11 -4.2448221127930458e-12 0.00094095594450836772 -109.56833416800004 -103.62177336400003 152.19744990400002 70.302883591683823 0.0000000000000000 0.0000000000000000 0.0000000000000000 0.0000000000000000 3.0507559029942946 3.1020221906647332 1.0512675648979799 1.0253410876868227 474.58789173936566 474.52204614291827 1.0253149742821628 