# For a description of the Tecplot format see the Tecplot User's guide.
#
Variables=x,y,z,s_u,s_v,s_w,s_p,mono_f_vel_u,mono_f_vel_v,mono_f_vel_w,const,u_nu,v_nu,w_nu,p_nu,x_nu,y_nu,z_nu,const,u_ref,v_ref,w_ref,vol_ref,x_ref,y_ref,z_ref,const,I1,I2,I3,J,p1,p2,p3
Zone f=fepoint, n=3174, e=16683, et=brick, c=black
-25.7549 -155.484 102.556 -25.754946308710824 -155.48373885274870 102.55565020311822 -410.43471628612912 -4.9716135194226714e-05 -0.00018521341611259497 -0.00019422652795342800 -384.36446085961046 2.0411450307733503e-13 3.4416913763379846e-14 4.7372488154451275e-08 -0.00012531766315424111 -8.2097870443702306e-10 -4.0482207643489657e-09 -1.0065685670327206e-09 -0.00029463193975810847 -24.903554063199991 -154.16086777200002 112.24023381839994 89.724962256112903 0.0000000000000000 0.0000000000000000 0.0000000000000000 0.0000000000000000 3.3265295634978731 3.6704749784802422 1.3436956217364253 1.1621470083098226 1318.3990511795598 1274.3523733975453 1.1589086141311979 
-38.658562170388926 -157.07056766597407 105.30622276832645 -38.658562170388912 -157.07056766597407 105.30622276832642 -329.60292075305978 0.00015319932797116823 -0.00013917995384335154 -9.3913612689791405e-05 0.0000000000000000 4.3773363989905776e-06 -2.5385552117159986e-05 -5.6539057257597688e-06 -0.00043942725291285596 -3.9197109835639779e-10 -3.2589765552016363e-09 -8.1822699429280951e-10 0.0000000000000000 -37.438273663334591 -155.10473791080037 114.93291110338620 89.036758072416930 0.0000000000000000 0.0000000000000000 0.0000000000000000 0.0000000000000000 3.4290960926081580 3.9075323348409907 1.4797860873130946 1.2047525473587761 1370.8124953220906 1361.0269589322756 1.2167554993095178 
-32.553605855724989 -149.08794719210411 110.99576801948221 -32.553605855724989 -149.08794719210402 110.99576801948216 -274.64929404972224 4.4167831071248528e-05 -9.6939509715248594e-05 -4.3471394365756771e-05 0.0000000000000000 2.3941959526041501e-13 5.4400928206632670e-14 4.3366327417970751e-08 0.0014593016307876379 -6.3181032157673114e-10 -3.0960255978717875e-09 6.1489496538871171e-11 0.0000000000000000 -31.542619574254449 -147.87907313389167 119.86135157363466 98.260374494724786 0.0000000000000000 0.0000000000000000 0.0000000000000000 0.0000000000000000 3.3635220433291968 3.7583921841839723 1.3953137972155121 1.1850660331738447 1191.7702485877155 1324.9566613054296 1.1808990935012571 
-29.589051097072179 -144.08712216461237 102.42750229024526 -29.589051097072197 -144.08712216461242 102.42750229024524 -274.71654337005316 4.6528351720947335e-05 -0.00013621171772027057 -7.5458874393067115e-05 0.0000000000000000 2.2409851752058785e-13 2.4646951146678475e-14 4.7433324823487055e-08 0.0027413149411683437 -1.8685780625949340e-09 -3.0190007984192081e-09 -3.5263112516967315e-10 0.0000000000000000 -28.647655777685479 -142.96738158566356 112.12452093910819 112.69127588814607 0.0000000000000000 0.0000000000000000 0.0000000000000000 0.0000000000000000 3.3793860997912901 3.7956599719697017 1.4172200847920806 1.1860523797092513 1209.8093009990414 1233.7200546207825 1.1904868181281614 
-25.097827000802777 -202.59472544786374 59.903106430464646 -25.097827000802774 -202.59472544786374 59.903106430464632 -1375.0923993836227 1.1216880731336828e-05 1.4593772656873007e-06 6.7762271378356506e-06 -1382.9102922882944 1.9789725413943418e-13 8.1490370007486503e-14 6.7617861532198731e-08 -0.0033572924873359351 -7.8651130293735137e-09 -6.0746781492648976e-10 -2.0719014882347065e-09 -0.0030547638950160381 -24.261860196399997 -200.43215969199997 73.726546483199982 142.71380061529433 0.0000000000000000 0.0000000000000000 0.0000000000000000 0.0000000000000000 3.3121201873006112 3.6454203731096686 1.3337060318136666 1.1546669908984584 3011.4957191255216 3011.4962348184436 1.1548628187080225 
-24.990853433466160 -189.56948476730417 61.656594658658754 -24.990853433466160 -189.56948476730417 61.656594658658754 -1350.5408235661666 3.5893010608516354e-05 -4.6294905840598339e-05 -1.5050814081516570e-05 -1360.3885705180676 1.9900747716405936e-13 5.4845017416482720e-14 6.6785553087811422e-08 -0.0030963055470488660 -5.7529233380560627e-09 -1.6902227467865961e-09 -1.9590419926286975e-09 -0.0034564042424743988 -24.157397762799999 -187.63907770800003 75.309882232799993 165.73632395326644 0.0000000000000000 0.0000000000000000 0.0000000000000000 0.0000000000000000 3.3122478921569494 3.6455324070217179 1.3336822698544191 1.1546669908984573 2970.5505971766365 2970.5499695419962 1.1548461202229896 
-35.976887834815223 -197.48278064065161 68.618999403766026 -35.976887834815223 -197.48278064065173 68.618999403766026 -1334.9965840073407 1.8133449405871269e-05 -3.6426324812854347e-05 -6.9001393655434298e-05 0.0000000000000000 2.6317836798739336e-13 7.7049477908985851e-14 6.3480790402081766e-08 -0.0076445089561095131 -1.1394444460952819e-08 6.1655822292015274e-09 -2.6174487413627714e-08 0.0000000000000000 -34.885542273181727 -195.41132893576267 81.596679120775832 139.46796289390394 0.0000000000000000 0.0000000000000000 0.0000000000000000 0.0000000000000000 3.3092908037199744 3.6395272455951786 1.3306433986278612 1.1517823252875226 2938.5225006207907 2938.5212645410925 1.1535317395023126 
-19.527815427946546 -196.58515260452256 68.415531449657863 -19.527815427946550 -196.58515260452256 68.415531449657905 -1363.8878169324082 1.8446004380421016e-05 -2.3890923869490608e-05 -3.2525739956269561e-05 0.0000000000000000 1.6753265441593612e-13 6.1506355564233672e-14 6.3577367370726279e-08 0.0016102372421778722 -8.8644941628863433e-10 1.7433916243400966e-10 -2.6139393010490296e-09 0.0000000000000000 -18.822600960987238 -194.52970000168264 81.412954998504986 111.95285379220412 0.0000000000000000 0.0000000000000000 0.0000000000000000 0.0000000000000000 3.3127610559756948 3.6466677131140277 1.3343110316501332 1.1546669908984581 3006.2927275620991 3006.2927127585035 1.1551288736072467 
-23.461538078253128 -103.60612659034898 26.138876527904706 -23.461538078253128 -103.60612659034896 26.138876527904703 -1290.7673516957807 -4.2595232206451158e-05 5.2780571341700675e-05 -7.2355243081143384e-05 -1306.5777354794902 1.9045875987444560e-13 1.3322676295501875e-14 8.3644323467524386e-08 0.079296690279189161 6.2171791399367684e-09 -1.0720026409288579e-08 1.3520491650911027e-08 0.080975279844929984 -22.663982073999996 -103.20790935200000 43.238681550399988 69.202643319072678 0.0000000000000000 0.0000000000000000 0.0000000000000000 0.0000000000000000 3.3115126390662013 3.6440990344737978 1.3329894064899079 1.1546669908984584 2867.5776243178739 2945.3905926399075 1.1545554031188414 
-31.129210222533839 -111.30861138291338 30.291951067692732 -31.129210222533843 -111.30861138291336 30.291951067692725 -1253.0828246840715 1.7133470378606598e-06 8.1107002127623010e-05 -9.7641897877119967e-05 -1243.6164949639224 2.3342439092743916e-13 1.6431300764452317e-14 8.1673032781282005e-08 0.072622816378891397 3.2514816210450122e-09 -1.7133977630904741e-08 1.6253715712926012e-08 0.069119652833413800 -30.151660686400003 -110.77310694400001 46.988755992800002 74.715282964229786 0.0000000000000000 0.0000000000000000 0.0000000000000000 0.0000000000000000 3.3130377515343290 3.6472249614628840 1.3345904614450588 1.1546669908984590 2795.4437646971451 2871.5106942850766 1.1552550789418448 
-19.438262587257991 -103.97178292725187 33.636121165054391 -19.438262587257988 -103.97178292725187 33.636121165054398 -1225.2734302470840 -5.2823293563990851e-05 4.3247087311572687e-05 -0.00010293809159921307 -1228.4635018864899 1.6764367671839864e-13 1.1102230246251565e-14 8.0085694520448669e-08 0.067549501260840847 9.4952233274367174e-09 -1.0385185521869927e-08 1.7520415201158345e-08 0.067271707506837627 -18.735150314000002 -103.56704831999998 50.008419303199993 79.719497061372692 0.0000000000000000 0.0000000000000000 0.0000000000000000 0.0000000000000000 3.3116620973077677 3.6443944980306644 1.3331350077411754 1.1546669908984590 2750.3544043335528 2712.4868387416850 1.1546149542776880 
-26.357414008417258 -98.800145799367627 34.714590815312647 -26.357414008417248 -98.800145799367641 34.714590815312668 -1243.5677886390256 3.1844350281220528e-06 1.8570462001142668e-05 -0.00015883271881745022 0.0000000000000000 2.0455859228718512e-13 6.8833827526759706e-15 7.9573794664611341e-08 0.074019533124009579 4.7694953566780105e-09 -9.8930559718193339e-09 2.2831512953313604e-08 0.0000000000000000 -25.491879232152165 -98.487589184379729 50.982237960580505 72.292163684038698 0.0000000000000000 0.0000000000000000 0.0000000000000000 0.0000000000000000 3.3113887258135994 3.6439394847090472 1.3329580959192304 1.1546669908984581 2778.6331337007850 2822.6238779010741 1.1545324513933712 
-26.336067083193171 -104.49586160883874 98.630469914098938 -26.336067083193154 -104.49586160883879 98.630469914098896 -255.34131690406994 4.4332468753349594e-05 0.00014593551725141244 -8.5602629512083531e-06 0.0000000000000000 3.2488194468338422e-08 -9.4276029200567704e-06 1.2861932120553182e-05 0.010986961898740039 -2.9133551091246795e-10 -1.9651330358192457e-09 1.2796101190262620e-09 0.0000000000000000 -25.283559732051039 -104.23282252886388 108.75695162467670 96.378087069502698 0.0000000000000000 0.0000000000000000 0.0000000000000000 0.0000000000000000 3.3679071798819291 3.7651895392912595 1.3973792844812913 1.1904308246509439 1131.4240840253472 1131.0694968620812 1.1817971325733800 
-27.014469227967350 -118.53194326010470 100.67734752209120 -27.014469227967336 -118.53194326010464 100.67734752209118 -171.37711380317668 5.4080535851316861e-05 2.6651203874219611e-07 -4.6239053988848401e-05 0.0000000000000000 -2.6943353238853329e-06 -1.4872652531716665e-05 1.7691364414451069e-05 0.0083974826589017504 -7.9262297778623476e-10 -2.1722000649556025e-09 1.4709342580254210e-09 0.0000000000000000 -25.913646985361510 -118.01095136745833 110.66456878241424 88.846747377876298 0.0000000000000000 0.0000000000000000 0.0000000000000000 0.0000000000000000 3.4702877662087990 3.9942596299439677 1.5254013202108592 1.2206649112150267 1167.4206907040343 1168.1644068406360 1.2353793400618214 
-37.868881578822226 -112.79387363675022 102.26087554812264 -37.868881578822219 -112.79387363675018 102.26087554812270 -178.95973628772916 -5.4931495658025562e-05 6.2224525484296301e-05 3.6328380170250784e-05 0.0000000000000000 -3.8465825543559264e-06 -3.2534184292481074e-05 3.5800875164572508e-05 0.0086172603978642119 -6.7580322173247650e-10 -2.3124998286331183e-09 1.5400875331031250e-09 0.0000000000000000 -36.236867317722961 -112.72601430119678 112.03758904139967 95.996160021407249 0.0000000000000000 0.0000000000000000 0.0000000000000000 0.0000000000000000 3.4795622837602909 4.0161962185658107 1.5384002807726080 1.2318847506398209 1200.8865293561983 1200.6447859773514 1.2403626762349795 
-34.764023967731738 -105.01870637288744 94.935925518478498 -34.764023967731752 -105.01870637288737 94.935925518478555 -247.24408340292405 6.1102451783160059e-07 0.00016401306077102240 -9.9329573196220520e-06 0.0000000000000000 -3.4928444346986830e-06 -2.7440747357475265e-05 4.0972479888081740e-05 0.011770261239199862 3.6026323647518454e-10 -2.4584363819906586e-09 3.6080752623959305e-09 0.0000000000000000 -33.380789828628046 -105.09637623893835 105.63342596379557 85.433794965156210 0.0000000000000000 0.0000000000000000 0.0000000000000000 0.0000000000000000 3.4437887264687115 3.9308000401198799 1.4877292295427631 1.2100839046702743 1204.8550978643027 1204.8609068634830 1.2196760203642476 
-115.16976837905816 -162.10435492243269 116.31483110445764 -115.16976837905811 -162.10435492243272 116.31483110445764 -737.31381032166234 9.1832663242826668e-06 -2.8642046491452674e-05 -6.3690020153739417e-05 -734.33021148490297 7.0904393467685622e-13 4.3298697960381111e-14 4.0841584336703818e-08 0.0041985118845676746 2.7327796126216509e-10 -8.7010104045374404e-10 -3.6894684872382165e-10 0.0042217264219058031 -112.21942232800005 -160.66347960400000 124.66427103520003 147.55923210393107 0.0000000000000000 0.0000000000000000 0.0000000000000000 0.0000000000000000 3.3322151198286956 3.6923114817734071 1.3607617479482121 1.1546669908984579 1940.3847866670442 1940.3846052316837 1.1668799666640570 
-102.17799012090303 -159.48894790437879 107.36714886637756 -102.17799012090303 -159.48894790437870 107.36714886637762 -767.89031905673721 -6.1060377542685918e-05 -4.8541676389424994e-05 -0.00011717588455525963 0.0000000000000000 6.3754557189099604e-13 5.7953641885433171e-14 4.5088675904025883e-08 0.0032570670412591833 1.0751699748405956e-09 -1.3038154388687671e-09 -4.2967430446864246e-10 0.0000000000000000 -99.532617471171264 -158.09468895943013 116.58484116745363 117.70414803503969 0.0000000000000000 0.0000000000000000 0.0000000000000000 0.0000000000000000 3.2669947716640064 3.5302199025898640 1.2623493752412049 1.1287726639226867 1856.0436840603124 1856.0439851644337 1.1232189618129915 
-107.10355969012817 -150.08156385053184 112.13690955450835 -107.10355969012819 -150.08156385053186 112.13690955450831 -708.20661252652587 -4.9646284638025225e-05 -5.5978522692755044e-05 -5.1779352843104981e-05 0.0000000000000000 6.5264460502589827e-13 2.9976021664879227e-14 4.2824666479646105e-08 0.0047573894975583347 4.1983043278326397e-10 -1.0863534639956988e-09 -3.5175840240856315e-10 0.0000000000000000 -104.34256255272837 -148.85497981259945 120.89176065121424 119.29379793442074 0.0000000000000000 0.0000000000000000 0.0000000000000000 0.0000000000000000 3.2654315945359023 3.5357745519874877 1.2702171292748021 1.1313207894251853 1757.4655715968163 1757.4679699117189 1.1266334343821536 
-103.19976790207113 -163.75332079972426 116.20800994442307 -103.19976790207106 -163.75332079972426 116.20800994442301 -728.11995264277095 -3.1476264482311250e-05 -7.2243165091483052e-05 -5.8180606187746784e-05 0.0000000000000000 6.3354876900234568e-13 4.7739590058881725e-14 4.0892302877182367e-08 0.0035617369138815440 9.0500447410907484e-10 -1.3098939167796612e-09 -7.3545498840655978e-10 0.0000000000000000 -100.53040969477119 -162.28305471776312 124.56781543385799 141.51484144144280 0.0000000000000000 0.0000000000000000 0.0000000000000000 0.0000000000000000 3.2696707102219831 3.5498366689839580 1.2801371561843358 1.1331220914319009 1802.4616589865859 1802.4617517561130 1.1311661392808672 
-80.537913743999567 -150.02297780257697 77.314312538637239 -80.537913743999553 -150.02297780257692 77.314312538637267 -809.25617307044149 -0.00014390062534805614 -0.00010619749332350517 -5.1888229440803971e-05 -812.19651120674848 5.0764947800985283e-13 5.5289106626332802e-14 5.9353489234581496e-08 0.0040941859025847259 8.7220210652161364e-10 -1.1440350046632307e-09 4.0248033801759772e-10 0.0043749968404758676 -78.400527573600002 -148.79743798799998 89.448228916799977 108.06316173413846 0.0000000000000000 0.0000000000000000 0.0000000000000000 0.0000000000000000 3.3332388123671470 3.6906554238548614 1.3579944050810762 1.1546669908984581 2071.9060569046933 2071.8653761672986 1.1656674883195248 
-82.328789072990773 -164.00947604627541 75.459066647308603 -82.328789072990759 -164.00947604627541 75.459066647308617 -1033.2153798316497 -8.0136112142772465e-05 -0.00017653305580202138 -9.6247463957711200e-05 -1042.3385701551379 5.2541304640385533e-13 5.2180482157382357e-14 6.0234111032286819e-08 0.00058567182513012260 1.5174760007293913e-09 -3.3562475501778930e-09 5.8389012326643124e-10 0.0016632341389059939 -80.149363288800018 -162.53464431600008 87.773009718400019 109.57810873427631 0.0000000000000000 0.0000000000000000 0.0000000000000000 0.0000000000000000 3.3359198791448397 3.6946938712993709 1.3592187225302699 1.1546669908984584 2464.2545902263155 2464.3709630289550 1.1662745515280266 
-86.574571327088819 -161.61661534444869 83.433016916222641 -86.574571327088819 -161.61661534444866 83.433016916222641 -929.31227904348100 -5.4391798620148021e-05 -0.00011908548328331757 -0.00017423846728569241 0.0000000000000000 5.4917181913083368e-13 5.7509552675583109e-14 5.6449202645580954e-08 0.0029541942926740797 5.4553557758986511e-09 -5.0737561195121125e-09 6.9535669175825698e-10 0.0000000000000000 -84.295478612813938 -160.18443337667750 94.973195224810283 106.11323630727971 0.0000000000000000 0.0000000000000000 0.0000000000000000 0.0000000000000000 3.2545441749713535 3.5252512147981454 1.2709279518580059 1.1313386642065058 2118.8467494528454 2118.8232537175495 1.1267249306544125 
-88.805472322331227 -152.66273939397081 80.842978098581824 -88.805472322331241 -152.66273939397072 80.842978098581838 -886.20096857647206 -6.5152470104377425e-05 -0.00015561572585883661 -0.00016441215942787472 0.0000000000000000 5.5183635438993406e-13 4.6407322429331537e-14 5.7678590792420443e-08 0.0049499499371916354 1.9831868574677294e-09 -1.4739986372395976e-09 -9.5814332184089900e-10 0.0000000000000000 -86.474010682800568 -151.39014911596544 92.634484883397832 94.367740677547317 0.0000000000000000 0.0000000000000000 0.0000000000000000 0.0000000000000000 3.2826664139981379 3.5847668260696630 1.3025153668232397 1.1366807199601723 2089.1384291345071 2088.9854889060175 1.1412966281283115 
-26.896854310550189 -133.35942789840107 131.79757715114664 -26.896854310550186 -133.35942789840104 131.79757715114667 -393.80739764331003 4.3778656897981723e-05 -3.7097919662705670e-05 0.00017248543412829565 -420.77590582732381 2.0855539517583566e-13 3.2640556923979602e-14 3.3492597140138969e-08 0.0054654078178113952 -7.7519529897944733e-10 1.2376521772191444e-10 1.2489464558228124e-09 0.0056988581821103687 -26.018656529999991 -132.43089511199997 138.64462455200004 49.421240865332216 0.0000000000000000 0.0000000000000000 0.0000000000000000 0.0000000000000000 3.3085322450415666 3.6367129803927933 1.3285876116208450 1.1633000179524406 1297.8730102097618 1297.4684482620398 1.1528045880078772 
-33.529337859265304 -134.91303725874957 130.64395967965038 -33.529337859265304 -134.91303725874965 130.64395967965038 -369.22023273738762 -2.4214256748088804e-06 3.3956616838560608e-05 8.8037921977074179e-05 -279.15021256208735 2.4830137945741626e-13 3.6637359812630166e-14 3.4040152030456738e-08 0.0047221175626326996 -7.7634061898768313e-10 -1.6127283074260112e-09 9.2004719442836676e-10 0.0050018513312283554 -32.495446914399992 -133.95681332000001 137.60295016000006 48.530522504776933 0.0000000000000000 0.0000000000000000 0.0000000000000000 0.0000000000000000 3.3780518398571404 3.7916515979680123 1.4144440479998570 1.1879751574936621 1381.0959759622383 1381.2957068884059 1.1890677078998590 
-29.354083466065873 -137.44004175536466 133.64194862824630 -29.354083466065859 -137.44004175536469 133.64194862824633 -393.64509329955172 4.6854384889789015e-05 4.4459120724293778e-05 5.5328670007952869e-05 -416.06581317117258 2.2465362903290038e-13 2.2426505097428162e-14 3.2617140988122628e-08 0.0043188235455595067 3.5259589698611904e-10 -1.7377997815739411e-09 -4.9287591860765928e-10 0.0042030875695999457 -28.418203856399998 -136.43877710800004 140.31002455199999 44.353383947079159 0.0000000000000000 0.0000000000000000 0.0000000000000000 0.0000000000000000 3.3221981400686644 3.6651977730195147 1.3433269803328227 1.1697743594924106 1323.5618504295526 1322.7683969733773 1.1589790176588426 
-27.664585247810731 -130.37711387706693 137.56050134792093 -27.664585247810727 -130.37711387706699 137.56050134792090 -431.27944258927823 2.7164097110075179e-05 3.2254499579111044e-05 2.9383194393692790e-05 0.0000000000000000 2.1477264411373653e-13 1.6653345369377348e-14 3.0757156821437093e-08 0.0052164020302516191 -6.0065449100703980e-10 -1.1552570276834340e-09 4.0362930185198772e-10 0.0000000000000000 -26.768365491316434 -129.50173712462359 143.84833436668455 49.139845408488213 0.0000000000000000 0.0000000000000000 0.0000000000000000 0.0000000000000000 3.3290977774925579 3.6852635073372979 1.3567533801491825 1.1707468978720088 1418.0001503385395 1418.0897188233002 1.1647228566834338 
-41.284704983597749 -65.189560783803373 148.75148241780127 -41.284704983597749 -65.189560783803373 148.75148241780124 -655.56491211437583 -1.9498323158908079e-05 -2.4172450172620233e-06 4.0832596568119094e-05 -662.36937352105201 2.9315438965227258e-13 -4.2188474935755949e-15 2.5445277884728057e-08 0.0080947413263778890 2.4768800903341911e-10 -4.1935030677661564e-10 8.8889871261705681e-10 0.0079966689688056036 -40.068761925200000 -65.476070995999990 153.95338104800004 156.95717166164070 0.0000000000000000 0.0000000000000000 0.0000000000000000 0.0000000000000000 3.3053167907419994 3.6317686343874751 1.3269109658260401 1.1504813857444063 1748.1150685133916 1748.0946427817437 1.1519375858190497 
-53.939770250571584 -59.263643968513968 143.55795366286588 -53.939770250571577 -59.263643968513968 143.55795366286588 -666.26145131794317 -2.5359972191615923e-05 -4.3142208601899192e-06 2.8291642761541407e-05 -670.04418734935746 3.6287639559873242e-13 -1.4654943925052066e-14 2.7910417088605751e-08 0.0086349486240101993 -2.6315438987182860e-10 -3.2623988391608213e-10 1.1401306570065543e-09 0.0085783906091686235 -52.426757905599978 -59.655776269200025 149.26381449600007 118.05125250056595 0.0000000000000000 0.0000000000000000 0.0000000000000000 0.0000000000000000 3.3174409146707879 3.6581811713000003 1.3412353031369322 1.1509745936391631 1789.0535090376782 1789.5882654820782 1.1581693751839011 
-36.271170924923126 -65.753308048437219 138.83547738318174 -36.271170924923126 -65.753308048437233 138.83547738318177 -632.73165167454272 -4.1800240023406117e-06 2.1345000026956939e-06 -5.0450775013011171e-08 -632.48652838509508 2.6051383272829293e-13 -9.3258734068513165e-15 3.0151994678817573e-08 0.0087270282978243480 2.9303778607491170e-10 -4.9199108683546430e-10 1.1973575198727041e-09 0.0085576677936821804 -35.172917262399999 -66.029770167599992 144.99959110400002 155.12084301790807 0.0000000000000000 0.0000000000000000 0.0000000000000000 0.0000000000000000 3.3144167764659547 3.6495332282690689 1.3355129004856088 1.1537009082092540 1725.8022887736795 1726.2411114666527 1.1556495491497609 
-51.877428480807332 -66.323835001811759 135.73887301957083 -51.877428480807332 -66.323835001811787 135.73887301957078 -646.33336450625643 -2.3551180189035464e-05 1.6734481211402139e-05 1.5841988111673412e-05 0.0000000000000000 3.4688918404413016e-13 -3.1086244689504387e-15 3.1621802065728843e-08 0.0090998844499694548 1.7457670881359610e-10 -6.5147674447519338e-10 1.1079512291408524e-09 0.0000000000000000 -50.412828244765279 -66.590128188430739 142.20347059834828 136.07757377940416 0.0000000000000000 0.0000000000000000 0.0000000000000000 0.0000000000000000 3.2849037752450001 3.5824232961037556 1.2975118952067428 1.1426519262638923 1689.9215366419010 1689.6815640635257 1.1390112119659708 
-97.085549822061026 -160.12229878781977 64.222572787430707 -97.085549822061026 -160.12229878781980 64.222572787430721 -1240.3752221789657 -3.3484900982722742e-05 -5.2148449034534771e-05 -7.4583586139587442e-05 -1242.5122462863180 5.9935389984389076e-13 4.5519144009631424e-14 6.5567597573590306e-08 0.0061385749408147949 3.6646013816297852e-09 -4.2044711349774120e-09 2.1144333290936775e-09 0.0063492405574791756 -94.559718839999974 -158.71675115199997 77.626866652000004 109.98746742214213 0.0000000000000000 0.0000000000000000 0.0000000000000000 0.0000000000000000 3.3104242809166986 3.6418418663193317 1.3318229241661561 1.1546669908984573 2775.9575699962888 2785.9297582543004 1.1540322048861049 
-92.090720134936731 -159.86740975213760 69.551124289461612 -92.090720134936717 -159.86740975213758 69.551124289461626 -1141.7985345341233 -0.00012253698758880757 -0.00011907085232852999 -0.00015174910647136364 -1112.4801642505465 5.7714943935138763e-13 4.9071857688431919e-14 6.3038360309519690e-08 0.0042370728476461344 3.6440923621990031e-09 -4.9852958787826540e-09 1.0931868327656175e-09 0.0038955860332673948 -89.682139475999989 -158.46640519600001 82.438353807199988 112.88451412247700 0.0000000000000000 0.0000000000000000 0.0000000000000000 0.0000000000000000 3.3145340752717214 3.6493555117719740 1.3351897478776482 1.1546669908984570 2597.6394246049526 2593.2039558197112 1.1554392318419140 
-105.43161595994177 -156.28112208872233 74.169951654938330 -105.43161595994174 -156.28112208872241 74.169951654938345 -1123.9833658179618 -3.0006001613718660e-05 -2.9005669299371701e-05 -0.00016530397090549055 0.0000000000000000 6.4287464240919689e-13 3.5749181392930041e-14 6.0845991356472950e-08 0.0079184473606133347 2.4128025723112120e-09 -4.1092459793110974e-09 2.6695722689825830e-09 0.0000000000000000 -102.70986659571734 -154.94403864466588 86.608986019839278 111.02505284862640 0.0000000000000000 0.0000000000000000 0.0000000000000000 0.0000000000000000 3.3168153946446961 3.6556784743468147 1.3392770611551155 1.1506884901064027 2595.5967089897699 2599.9548013133813 1.1573912270693041 
-103.07345783892917 -168.73293477961425 70.915212020066789 -103.07345783892922 -168.73293477961425 70.915212020066775 -1202.2790428335893 -1.5792533889914687e-05 -3.7469412197397447e-05 -0.00015990010032194941 0.0000000000000000 6.4198646398949677e-13 4.5519144009631418e-14 6.2390881794271991e-08 0.0038602801168541559 2.7563667971577068e-09 -3.8680991775888413e-09 -7.3180447027435208e-10 0.0000000000000000 -100.40706467681501 -167.17391327890167 83.670075146830683 105.53983917324770 0.0000000000000000 0.0000000000000000 0.0000000000000000 0.0000000000000000 3.3110027368298303 3.6431088698836080 1.3325105719136168 1.1514330230790555 2702.5902111580076 2707.8926451691163 1.1543576706088461 
-117.63221254304835 -100.14233081973438 85.203928763825118 -117.63221254304835 -100.14233081973438 85.203928763825132 -902.34106080806146 -2.7819478689827396e-05 -4.1269559970206347e-05 -0.00011932748204408495 -916.14592568495391 7.1615211303479210e-13 6.8833827526759706e-15 5.5608627036463070e-08 0.021378459761422344 -9.1227525705101528e-11 -2.7592517089492225e-09 5.6673698503539646e-09 0.021657163173996689 -114.62406224400000 -99.805851428000011 96.572263865600007 85.211636250682801 0.0000000000000000 0.0000000000000000 0.0000000000000000 0.0000000000000000 3.3218055784958360 3.6632030099432096 1.3413827626247683 1.1406541220538795 2202.0604422120164 2202.9666653005875 1.1580893355788324 
-114.01069979879088 -91.276091692826270 89.245072087410918 -114.01069979879092 -91.276091692826270 89.245072087410932 -841.69172941493537 -1.1591015421531134e-05 -1.9918346418554202e-06 -0.00012772825365570619 -833.52587651827037 6.9350081233210403e-13 1.2212453270876724e-14 5.3690470736000868e-08 0.021124383986010485 -2.3962247806481792e-10 -2.3866886042404481e-09 7.9140899973871543e-09 0.020633674559839523 -111.08756211600000 -91.097641973600034 100.22126851279998 99.535403830130534 0.0000000000000000 0.0000000000000000 0.0000000000000000 0.0000000000000000 3.3390911232888736 3.7039443514608972 1.3655008878855281 1.1488292420973936 2129.1611432759851 2128.8363988968085 1.1687908305731656 
-115.87115877876346 -97.953266941856540 98.288121346947349 -115.87115877876342 -97.953266941856540 98.288121346947335 -757.70689088155632 -1.2234964838831089e-05 -9.7233907228063685e-06 -0.00011664717874676180 -756.73071820153029 7.0637939941775595e-13 5.5511151231257827e-15 4.9398110490983527e-08 0.015914224172581707 -4.0394785458024600e-10 -2.2784622164433388e-09 3.9499775533104323e-09 0.015561698920278559 -112.90434805199999 -97.655804887999992 108.38681131359999 128.09762094244454 0.0000000000000000 0.0000000000000000 0.0000000000000000 0.0000000000000000 3.3163075131285846 3.6573340153791558 1.3415517942888218 1.1492466052160260 1953.3239752413795 1953.2966836290836 1.1582711610159768 
-109.98326255713465 -104.25091102527266 89.609313301656073 -109.98326255713468 -104.25091102527266 89.609313301656115 -828.03904728044438 -0.00013660828211449147 -1.2917210956117578e-05 -0.00013458142419410784 0.0000000000000000 6.7129635183960090e-13 1.4210854715202004e-14 5.3517574372108356e-08 0.017853520845595050 3.3294622083214089e-09 -2.2823800610502778e-09 5.1399551612506868e-09 0.0000000000000000 -107.15466629968294 -103.84120130723400 100.55016500991876 102.24201981555134 0.0000000000000000 0.0000000000000000 0.0000000000000000 0.0000000000000000 3.2713083937949152 3.5447582859120148 1.2730287673936822 1.1276891867507246 1965.6984771994905 1965.7896434376739 1.1279962023522716 
-27.898779451626279 -115.83376705966526 92.373410008923571 -27.898779451626289 -115.83376705966522 92.373410008923614 -219.80461328258849 9.6154336957018062e-05 3.4291540731159570e-05 -0.00012251763551243439 0.0000000000000000 -4.6422996828843048e-06 -1.7045705400300343e-05 2.5381036187281971e-05 0.0098510129546042092 -8.2244536338627601e-10 -3.3376065377508073e-09 2.1843016542712841e-09 0.0000000000000000 -26.889884864405381 -115.37486796036181 103.37575244326078 96.382960025775517 0.0000000000000000 0.0000000000000000 0.0000000000000000 0.0000000000000000 3.4232068377476721 3.8899166000464080 1.4676910607334295 1.2099685535419797 1161.4471551337590 1161.4748507548795 1.2114191076861822 
-112.45495169304272 -104.02750107790905 146.80685090720644 -112.45495169304269 -104.02750107790908 146.80685090720641 -672.04588357622742 2.2876721774375305e-06 7.6849277743553643e-06 8.9867267890656397e-07 -675.24815460174864 6.8595129576465297e-13 1.7985612998927536e-14 2.6368315531044573e-08 0.0068255837732381442 -7.6380103318889797e-11 -4.8893449595499930e-10 3.6720628188202531e-10 0.0068419386629973164 -109.56833416800004 -103.62177336400003 152.19744990400002 70.302883591683823 0.0000000000000000 0.0000000000000000 0.0000000000000000 0.0000000000000000 3.3011637540439192 3.6196622639167817 1.3187536556529529 1.1488201777217131 1767.4597141622328 1767.4597200579710 1.1484056790211008 