# For a description of the Tecplot format see the Tecplot User's guide.
#
Variables=x,y,z,s_u,s_v,s_w,s_p,mono_f_vel_u,mono_f_vel_v,mono_f_vel_w,const,u_nu,v_nu,w_nu,p_nu,x_nu,y_nu,z_nu,const,u_ref,v_ref,w_ref,vol_ref,x_ref,y_ref,z_ref,const,I1,I2,I3,J,p1,p2,p3
Zone f=fepoint, n=3174, e=16683, et=brick, c=black
-25.9201 -155.739 100.491 -25.920131509266415 -155.73863819133734 100.49096160667881 -451.88016924647059 -5.9296659400458386e-05 -0.00021490326537769889 -0.00022420657544739949 -418.98939163571691 1.8271380519685469e-09 7.1617844987770241e-10 2.5216479553336058e-05 -0.10460697891482512 -1.3029461350798490e-08 -6.9459206240527902e-08 -4.6583989823646495e-08 -0.10887115245905332 -24.903554063199991 -154.16086777200002 112.24023381839994 89.724962256112903 0.0000000000000000 0.0000000000000000 0.0000000000000000 0.0000000000000000 3.3987516349142628 3.8233466905073437 1.4241855152767426 1.1966168342121959 1508.8252632039014 1508.8279426484585 1.1930012280199105 
-38.886775452055858 -157.44201795570356 103.25672264019617 -38.886775452055865 -157.44201795570362 103.25672264019614 -359.49563279547846 0.00017824474489644147 -0.00015514751244009032 -0.00010614547535908636 0.0000000000000000 6.7039887024612459e-05 -0.00052262057046721959 -0.00014458493824476707 -0.10802444189183451 -5.8765964093877901e-09 -5.4986561019955054e-08 -3.9553226106654977e-08 0.0000000000000000 -37.438273663334591 -155.10473791080037 114.93291110338620 89.036758072416930 0.0000000000000000 0.0000000000000000 0.0000000000000000 0.0000000000000000 3.5184008639258058 4.1082868593713320 1.5922209636301237 1.2476956124903646 1569.7476946042132 1569.7486253559598 1.2622373275093355 
-32.749755130685180 -149.32088084857261 109.10568477045578 -32.749755130685202 -149.32088084857250 109.10568477045580 -297.04634034303405 4.9665030431804178e-05 -0.00010732310536475287 -5.2991477067038707e-05 0.0000000000000000 2.1696316410135807e-09 6.5448424457770226e-10 2.3083987422012342e-05 -0.067874360186757882 -9.8185809117137978e-09 -5.6007261904752042e-08 -2.9590963131903642e-09 0.0000000000000000 -31.542619574254449 -147.87907313389167 119.86135157363466 98.260374494724786 0.0000000000000000 0.0000000000000000 0.0000000000000000 0.0000000000000000 3.4406667660553429 3.9268998871287404 1.4870104357531726 1.2237742031029983 1364.8209833845392 1364.8213020042092 1.2189651394573600 
-29.771698490744065 -144.30288100696552 100.36016262763178 -29.771698490744058 -144.30288100696546 100.36016262763178 -297.67948094843450 5.1252895600574649e-05 -0.00015572727460914760 -8.1112589062270647e-05 0.0000000000000000 2.0202892137000106e-09 6.0621396791304970e-10 2.5248857586035456e-05 -0.053294086012826494 -3.6499375886984142e-08 -6.2022939285621683e-08 -1.9364325884491667e-08 0.0000000000000000 -28.647655777685479 -142.96738158566356 112.12452093910819 112.69127588814607 0.0000000000000000 0.0000000000000000 0.0000000000000000 0.0000000000000000 3.4591449052391754 3.9715864028541579 1.5140637240359163 1.2250478835016199 1386.2836444534485 1386.2823289639025 1.2304978194344336 
-25.260019392113847 -203.01142257643951 56.956041262333798 -25.260019392113847 -203.01142257643954 56.956041262333784 -1591.6188563025432 1.4677657918455071e-05 2.1122073143424028e-06 8.5954938842864271e-06 -1601.0010731535272 1.7940344210209953e-09 1.1708001235177790e-09 3.5993131685785329e-05 -0.24154113598316840 -1.8515170070401949e-07 -1.7556881298154424e-08 -4.9524021517942195e-08 -0.23544299232045868 -24.261860196399997 -200.43215969199997 73.726546483199982 142.71380061529433 0.0000000000000000 0.0000000000000000 0.0000000000000000 0.0000000000000000 3.3797273487876369 3.7903447947678788 1.4113249702389175 1.1879879293740057 3508.8531232888558 3512.4915709566822 1.1879887778123190 
-25.152558620281194 -189.94144805970967 58.745804863446864 -25.152558620281191 -189.94144805970970 58.745804863446878 -1562.4592520943861 4.4197091842895584e-05 -5.5801561943623249e-05 -1.8374919573694437e-05 -1574.6540361920290 1.7886441772141386e-09 1.0451211007733718e-09 3.5550092864156106e-05 -0.23085301324788907 -1.3564012640757391e-07 -3.9074750632957073e-08 -4.6696414288190536e-08 -0.23854935892871604 -24.157397762799999 -187.63907770800003 75.309882232799993 165.73632395326644 0.0000000000000000 0.0000000000000000 0.0000000000000000 0.0000000000000000 3.3804434483045460 3.7916791593101591 1.4119334734022142 1.1879879293740061 3461.2031190613043 3513.8203746428153 1.1882432046649065 
-36.188628235816573 -197.88192132577075 65.852244695006675 -36.188628235816594 -197.88192132577089 65.852244695006647 -1543.1530326028662 2.3407961572461986e-05 -4.4081777744897483e-05 -8.1557022591132868e-05 0.0000000000000000 2.3420897998782660e-09 1.1214591477681781e-09 3.3790961822433019e-05 -0.33903836412377553 -2.6333748069737270e-07 1.1751210216949689e-07 -6.2030856972210456e-07 0.0000000000000000 -34.885542273181727 -195.41132893576267 81.596679120775832 139.46796289390394 0.0000000000000000 0.0000000000000000 0.0000000000000000 0.0000000000000000 3.3780644498889068 3.7871593361439704 1.4098229342482185 1.1844842436414453 3424.1164316047079 3302.3032900824473 1.1873638281065844 
-19.664639546058517 -196.98121047938929 65.644567487711839 -19.664639546058527 -196.98121047938920 65.644567487711825 -1578.7080654754677 2.2741305345123373e-05 -2.9197942205473082e-05 -3.8759698727924444e-05 0.0000000000000000 1.5134323239074374e-09 1.1128074017818790e-09 3.3842370314118853e-05 -0.12521264860105047 -2.6143812857924787e-08 5.9505119191335716e-09 -5.3197860274051263e-08 0.0000000000000000 -18.822600960987238 -194.52970000168264 81.412954998504986 111.95285379220412 0.0000000000000000 0.0000000000000000 0.0000000000000000 0.0000000000000000 3.3809852488207466 3.7929084347108803 1.4126319695510432 1.1879879293740068 3504.1164992871350 3517.8201155999091 1.1885493855161899 
-23.616278092872165 -103.68285765821106 22.493312213133947 -23.616278092872165 -103.68285765821108 22.493312213133947 -1481.3545339164725 -4.9314082223315947e-05 6.2571318437247905e-05 -8.5944576929842647e-05 -1500.5193860344391 1.7116020267771148e-09 2.1558910212604587e-10 4.4524049847893814e-05 1.2054024293239578 9.9075927170740117e-08 -1.7604927369772423e-07 2.2371961134697022e-07 1.2336732993686095 -22.663982073999996 -103.20790935200000 43.238681550399988 69.202643319072678 0.0000000000000000 0.0000000000000000 0.0000000000000000 0.0000000000000000 3.3793282125083834 3.7894863949492099 1.4108645200111385 1.1879879293740059 3320.8139632763964 3320.8139683935842 1.1878019900899615 
-31.318872175682618 -111.41179583472936 26.732303684252720 -31.318872175682614 -111.41179583472938 26.732303684252717 -1437.0609942999099 1.0860676228054230e-06 9.5463559043318572e-05 -0.00011572975068142460 -1427.0364069005593 2.0978780379543593e-09 2.8992430678442821e-10 4.3474728151693391e-05 1.0963289467760589 5.8081584076329868e-08 -2.8163674959056851e-07 2.6643103090775157e-07 1.0414785066192920 -30.151660686400003 -110.77310694400001 46.988755992800002 74.715282964229786 0.0000000000000000 0.0000000000000000 0.0000000000000000 0.0000000000000000 3.3812188316579896 3.7933754304589580 1.4128630774349633 1.1879879293740061 3235.9883790939980 3235.9884259949608 1.1886540722521848 
-19.574678842495960 -104.04976980382189 30.145656462989518 -19.574678842495960 -104.04976980382186 30.145656462989511 -1404.3630815221347 -6.1615915932732327e-05 5.1502141119983411e-05 -0.00012167232340611387 -1408.3717263016117 1.5089187122008241e-09 2.1912494041487210e-10 4.2629785394154851e-05 1.0137109377772500 1.5317152895242576e-07 -1.7331771339626029e-07 2.8594203226023689e-07 1.0096746552176976 -18.735150314000002 -103.56704831999998 50.008419303199993 79.719497061372692 0.0000000000000000 0.0000000000000000 0.0000000000000000 0.0000000000000000 3.3796628485003075 3.7901640117102580 1.4112070792047773 1.1879879293740052 3183.2808129526929 3183.2807518348814 1.1879440450882830 
-26.525343110848087 -98.860371225405984 31.246437006537995 -26.525343110848095 -98.860371225406027 31.246437006538006 -1425.3962489512708 4.1266140494368217e-06 2.1672901585238102e-05 -0.00018747386308073358 0.0000000000000000 1.8574867755027922e-09 1.6921775092271218e-10 4.2357297726169925e-05 1.1191633445221454 7.9269557023527203e-08 -1.6389465885063385e-07 3.7221688385411642e-07 0.0000000000000000 -25.491879232152165 -98.487589184379729 50.982237960580505 72.292163684038698 0.0000000000000000 0.0000000000000000 0.0000000000000000 0.0000000000000000 3.3793726348458097 3.7897344359164293 1.4110768306405925 1.1879879293740059 3215.8107837097100 3215.8107212720806 1.1878786391932961 
-26.532183722729471 -104.55561709209542 96.474566029798254 -26.532183722729464 -104.55561709209542 96.474566029798240 -273.75579658642727 5.0642990108779077e-05 0.00016718844470140138 -5.9813213518692767e-06 0.0000000000000000 1.4680681074455870e-06 -0.00015761869622436204 0.00021935657346171771 0.086488195787993272 1.4126557068277196e-09 -3.0121277965211329e-08 -6.7822192501261156e-09 0.0000000000000000 -25.283559732051039 -104.23282252886388 108.75695162467670 96.378087069502698 0.0000000000000000 0.0000000000000000 0.0000000000000000 0.0000000000000000 3.4462608109560469 3.9356742419836155 1.4896686579257430 1.2301798961330330 1293.6290230298616 1291.3796643270987 1.2201042504936133 
-27.218486566829071 -118.64477327050747 98.552761794697830 -27.218486566829061 -118.64477327050739 98.552761794697787 -181.17902787026591 5.8214471267272814e-05 -2.2712483924530967e-06 -5.0132273444826061e-05 0.0000000000000000 -4.1855964307262871e-05 -0.00025918780960862919 0.00028972255775005612 0.046728931624219310 -4.6456122278574945e-09 -3.9054875004956570e-08 9.1273664274264824e-09 0.0000000000000000 -25.913646985361510 -118.01095136745833 110.66456878241424 88.846747377876298 0.0000000000000000 0.0000000000000000 0.0000000000000000 0.0000000000000000 3.5652001284687591 4.2071295750786257 1.6443753225064786 1.2654794195607990 1339.1251101036421 1339.5925791205007 1.2827405006674892 
-38.163343664050984 -112.83519921524056 100.17310281572789 -38.163343664050984 -112.83519921524064 100.17310281572784 -190.02665586298377 -6.5170265867733307e-05 6.5432581620202961e-05 3.7347710654059410e-05 0.0000000000000000 -6.6349206636983848e-05 -0.00056090779692395340 0.00057874249396662133 0.054187494039825423 -1.3703134181462907e-08 -3.7155896296812367e-08 2.1113561524109324e-08 0.0000000000000000 -36.236867317722961 -112.72601430119678 112.03758904139967 95.996160021407249 0.0000000000000000 0.0000000000000000 0.0000000000000000 0.0000000000000000 3.5752044320806524 4.2317522173933231 1.6595465086138079 1.2785266338432069 1376.9456516589487 1377.3486094981638 1.2882847308214667 
-35.015733448509494 -105.02840015958014 92.668347920236045 -35.015733448509508 -105.02840015958010 92.668347920236087 -264.09075621700623 -5.5721762763279675e-07 0.00018715878935716537 -6.0626589914060418e-06 0.0000000000000000 -5.8794140725280482e-05 -0.00046385142149685954 0.00067513042442618595 0.098580743440231725 1.4630275885328267e-08 -3.6390849817684473e-08 4.8257297713573806e-08 0.0000000000000000 -33.380789828628046 -105.09637623893835 105.63342596379557 85.433794965156210 0.0000000000000000 0.0000000000000000 0.0000000000000000 0.0000000000000000 3.5366328709449308 4.1360911779958807 1.6007683680418177 1.2536296772967384 1377.2892190369391 1374.0838848936321 1.2651508988951468 
-115.74218785635804 -162.38199207922136 114.53478623144338 -115.74218785635800 -162.38199207922136 114.53478623144338 -823.46884796634549 1.1198327808249795e-05 -3.4804520685624053e-05 -7.4697021851939535e-05 -820.07003168850224 6.3316151766024120e-09 7.8007267312329986e-10 2.1740065410114084e-05 -0.032622436713757780 4.6413119559183757e-09 -1.4579167542438754e-08 -1.2773190294091685e-08 -0.031836181840684936 -112.21942232800005 -160.66347960400000 124.66427103520003 147.55923210393107 0.0000000000000000 0.0000000000000000 0.0000000000000000 0.0000000000000000 3.4032216123849461 3.8469637595832467 1.4449014716636166 1.1879879293740052 2216.9346163551195 2216.9356363815236 1.2025407848520406 
-102.69123934767757 -159.75760271742939 105.40199838231455 -102.69123934767762 -159.75760271742942 105.40199838231455 -859.75920185656344 -7.3544363471798340e-05 -5.8955950181771460e-05 -0.00013649204854367268 0.0000000000000000 5.6771262690880064e-09 7.5484929418223601e-10 2.4000799484724670e-05 -0.052614182384768220 1.6750915223163934e-08 -1.9323446771229845e-08 -1.5507392480867252e-08 0.0000000000000000 -99.532617471171264 -158.09468895943013 116.58484116745363 117.70414803503969 0.0000000000000000 0.0000000000000000 0.0000000000000000 0.0000000000000000 3.3301536443284050 3.6559742399001087 1.3243267744079501 1.1568993729090362 2124.2580146694686 2124.2664494421333 1.1503414595039982 
-107.63924211885549 -150.31790998020557 110.27043372643335 -107.63924211885553 -150.31790998020554 110.27043372643341 -788.59237774087183 -5.8867405536907817e-05 -6.8501030333330520e-05 -5.9109065796709118e-05 0.0000000000000000 5.9252611150917289e-09 6.6407168652915516e-10 2.2795664982311340e-05 -0.024987170288476395 7.7034456725063670e-09 -1.9543620950931402e-08 -1.2721032175143814e-08 0.0000000000000000 -104.34256255272837 -148.85497981259945 120.89176065121424 119.29379793442074 0.0000000000000000 0.0000000000000000 0.0000000000000000 0.0000000000000000 3.3266939321527933 3.6612365026528604 1.3343358768021647 1.1601127834222598 2005.6929600965957 2005.6906982347430 1.1545702039314980 
-103.71767075255225 -164.03662115853848 114.42575520347037 -103.71767075255228 -164.03662115853848 114.42575520347042 -813.28064281908053 -3.7262794178441465e-05 -8.6861152747954172e-05 -6.8257464636200399e-05 0.0000000000000000 5.7285988730448878e-09 7.9597683999566005e-10 2.1767054999344282e-05 -0.042102414031626782 1.4759938651287980e-08 -2.0890004952491413e-08 -1.7941080882246348e-08 0.0000000000000000 -100.53040969477119 -162.28305471776312 124.56781543385799 141.51484144144280 0.0000000000000000 0.0000000000000000 0.0000000000000000 0.0000000000000000 3.3308789568962562 3.6776285294259461 1.3467162269906106 1.1622409327521170 2060.2554489868412 2060.2550518439671 1.1601150353328546 
-80.952604581370764 -150.25912272455440 74.727442542841942 -80.952604581370778 -150.25912272455437 74.727442542841928 -912.29493939846100 -0.00017040571707007673 -0.00012671285274024600 -6.2473266864557331e-05 -916.49345846066547 4.5869538722875802e-09 6.6350813732185533e-10 3.1593991675293858e-05 -0.069334024910071790 8.3351085743905492e-09 -4.0885823654300896e-08 5.9218893686491065e-09 -0.062793882978050455 -78.400527573600002 -148.79743798799998 89.448228916799977 108.06316173413846 0.0000000000000000 0.0000000000000000 0.0000000000000000 0.0000000000000000 3.4057957950849675 3.8468355320552656 1.4420456186994015 1.1879879293740048 2381.2025430318890 2381.4012412959282 1.2013389698869155 
-82.751636341280857 -164.29365614367677 72.833816161994093 -82.751636341280829 -164.29365614367677 72.833816161994065 -1176.1484163449456 -9.3544215810315687e-05 -0.00021182159777957414 -0.00011573081440037341 -1187.4977252667745 4.6771763684283485e-09 7.9846995681975841e-10 3.2062740736193973e-05 -0.17200395045754271 5.1911805535392502e-08 -1.0793031375327568e-07 1.3345577200972430e-08 -0.15184880093748226 -80.149363288800018 -162.53464431600008 87.773009718400019 109.57810873427631 0.0000000000000000 0.0000000000000000 0.0000000000000000 0.0000000000000000 3.4086147764216026 3.8505281725653826 1.4426876113362044 1.1879879293740059 2841.6117254244459 2841.9184447941175 1.2016966503247448 
-87.016755748050315 -161.89257741031889 80.972727914533237 -87.016755748050358 -161.89257741031898 80.972727914533195 -1053.0027230594969 -6.2487753709874799e-05 -0.00014188971172379882 -0.00020758409412366228 0.0000000000000000 4.8910586136763357e-09 7.7536443932046950e-10 3.0048031163687483e-05 -0.10558091313153688 9.7709816407924556e-08 -1.1194662594356653e-07 -1.7244752438831888e-08 0.0000000000000000 -84.295478612813938 -160.18443337667750 94.973195224810283 106.11323630727971 0.0000000000000000 0.0000000000000000 0.0000000000000000 0.0000000000000000 3.3107130515255814 3.6454959146187780 1.3351924453714519 1.1599517055182873 2435.5197464146640 2432.8953922735182 1.1545939245155454 
-89.257817243892617 -152.90795030293873 78.329107543008092 -89.257817243892589 -152.90795030293881 78.329107543008135 -1001.8909002383224 -7.6118508042380536e-05 -0.00018596469210493751 -0.00019448616417271658 0.0000000000000000 5.0034447141023008e-09 6.8896732763334967e-10 3.0702434038687443e-05 -0.055090620408929251 4.0179438607440889e-08 -4.4134988876846807e-08 -3.5150729075015797e-08 0.0000000000000000 -86.474010682800568 -151.39014911596544 92.634484883397832 94.367740677547317 0.0000000000000000 0.0000000000000000 0.0000000000000000 0.0000000000000000 3.3440917874195062 3.7167475460590267 1.3733874617561528 1.1663323922268656 2399.4539088914530 2397.0358910494383 1.1719532117731324 
-27.067240260472289 -133.53834358909518 130.33783233924629 -27.067240260472293 -133.53834358909515 130.33783233924626 -432.36116146284564 4.9878861318719316e-05 -4.2337517893643631e-05 0.00019842424218903979 -462.81693082625128 1.8846641469671965e-09 5.0269721718620985e-10 1.7828172861555913e-05 0.0030348717953739171 -1.2251578537239490e-08 2.0651601644368188e-09 2.2224734949576685e-08 0.0066906434485941016 -26.018656529999991 -132.43089511199997 138.64462455200004 49.421240865332216 0.0000000000000000 0.0000000000000000 0.0000000000000000 0.0000000000000000 3.3760173112449841 3.7807637085234034 1.4054526395939555 1.1979921157392077 1485.7268544095255 1485.7697968152208 1.1857291149007028 
-33.729931045285845 -135.09728865941656 129.16034935025669 -33.729931045285859 -135.09728865941651 129.16034935025667 -404.07228318127193 -2.5066892755307807e-06 3.9977134738402246e-05 9.8322150182355401e-05 -298.03418403229801 2.2187865433842546e-09 5.1770610021151242e-10 1.8119647492653712e-05 -0.0088666625630769904 -1.3198532042385727e-08 -2.6856469042427731e-08 1.5180628004549615e-08 0.00081407038147303346 -32.495446914399992 -133.95681332000001 137.60295016000006 48.530522504776933 0.0000000000000000 0.0000000000000000 0.0000000000000000 0.0000000000000000 3.4567757958111889 3.9650700079706254 1.5097605135345653 1.2269518403904489 1578.6040329769821 1578.6085066763701 1.2284274880586705 
-29.535660714195267 -137.63297189049234 132.22035934089249 -29.535660714195270 -137.63297189049237 132.22035934089246 -431.47460546884645 5.2266008445899833e-05 5.3822635191383487e-05 6.3741734076030863e-05 -456.28707845276563 2.0084501284323157e-09 5.4207904831571341e-10 1.7362171355728151e-05 -0.015724210310000458 6.1721502132784248e-09 -2.8858371997528913e-08 -8.3204981834352874e-09 -0.018058692756193710 -28.418203856399998 -136.43877710800004 140.31002455199999 44.353383947079159 0.0000000000000000 0.0000000000000000 0.0000000000000000 0.0000000000000000 3.3917134029917211 3.8137941524797858 1.4226566894171893 1.2054086183342416 1512.5098242621971 1512.5380933531449 1.1927125393543627 
-27.838467780801839 -130.54578712003124 136.21997731034935 -27.838467780801842 -130.54578712003118 136.21997731034935 -475.00591129914324 3.2567748484382067e-05 3.8328541575136648e-05 3.2690571766799197e-05 0.0000000000000000 1.9233375447846868e-09 4.7392734181528329e-10 1.6372104262529774e-05 -0.0014689500589438913 -9.5883704329958758e-09 -1.8429362541247769e-08 7.0710588670079739e-09 0.0000000000000000 -26.768365491316434 -129.50173712462359 143.84833436668455 49.139845408488213 0.0000000000000000 0.0000000000000000 0.0000000000000000 0.0000000000000000 3.3993690217342492 3.8380584232272672 1.4397124283447811 1.2065829029205208 1622.1594692789620 1622.0831894340545 1.1997841678624255 
-41.520619509510681 -65.134354146776843 147.64247234485833 -41.520619509510666 -65.134354146776815 147.64247234485836 -728.85971480629848 -2.1607168883657874e-05 -3.3734850073135842e-06 4.8516918105136249e-05 -736.83183495157630 2.6094819083333221e-09 -1.5511436579629392e-10 1.3544575129031953e-05 0.038832809725864260 3.2415368668609624e-09 -6.5472350814818749e-09 1.5081625299306790e-08 0.037119448177674222 -40.068761925200000 -65.476070995999990 153.95338104800004 156.95717166164070 0.0000000000000000 0.0000000000000000 0.0000000000000000 0.0000000000000000 3.3721928324576709 3.7753395264072647 1.4039479832882018 1.1830140518875834 1995.7987573544269 1995.7959145089333 1.1849138480669377 
-54.233321488517483 -59.188085385717294 142.34150221146291 -54.233321488517497 -59.188085385717280 142.34150221146294 -740.55196856333066 -3.0128638296540010e-05 -4.6118368714415168e-06 3.2728006078928311e-05 -745.12326960579037 3.2470103827897386e-09 -2.1229751290263723e-10 1.4856779472438575e-05 0.047066833796021321 -4.8489318606741470e-09 -5.3271103641269263e-09 1.9204223645597269e-08 0.046162324962008623 -52.426757905599978 -59.655776269200025 149.26381449600007 118.05125250056595 0.0000000000000000 0.0000000000000000 0.0000000000000000 0.0000000000000000 3.3861954390856206 3.8063772609494957 1.4210444672968010 1.1835512083101576 2041.1169839007418 2041.1182887392563 1.1921485481920280 
-36.484251620056732 -65.700037542833982 137.52132947428794 -36.484251620056732 -65.700037542833996 137.52132947428797 -702.34670043098470 -4.0569289705283189e-06 1.8666008808505008e-06 -5.0365455202909255e-07 -702.12914831898888 2.3569159401937156e-09 -1.4967715955549465e-10 1.6049967008768817e-05 0.049588034904105807 4.3542119643187117e-09 -7.5424133926489188e-09 1.9282792256707170e-08 0.047020251197853039 -35.172917262399999 -66.029770167599992 144.99959110400002 155.12084301790807 0.0000000000000000 0.0000000000000000 0.0000000000000000 0.0000000000000000 3.3827782847998624 3.7958302248050235 1.4137454957566062 1.1867479900482729 1968.8481779063793 1968.8464255502911 1.1890175682833897 
-52.161586910720253 -66.272523911768573 134.36066395744754 -52.161586910720267 -66.272523911768545 134.36066395744760 -717.46125935435418 -2.7314205272969229e-05 2.0480107350718068e-05 1.7932288785905420e-05 0.0000000000000000 3.1431146019222922e-09 -1.4416490223823075e-10 1.6832359460039470e-05 0.054898702048123395 2.0971145938297780e-09 -1.0919822113384693e-08 1.8019832721560178e-08 0.0000000000000000 -50.412828244765279 -66.590128188430739 142.20347059834828 136.07757377940416 0.0000000000000000 0.0000000000000000 0.0000000000000000 0.0000000000000000 3.3484111821463913 3.7156202741367239 1.3672161777664160 1.1735818832135896 1926.9006580059865 1926.8992550142773 1.1691802021617408 
-97.575605844465812 -160.39312877869264 61.364866789433094 -97.575605844465812 -160.39312877869267 61.364866789433101 -1419.7764749080052 -3.9282850973335825e-05 -6.2262947583899674e-05 -8.9667462869590198e-05 -1422.9280610557832 5.4205794852713049e-09 7.6095640899609417e-10 3.4901769193851351e-05 -0.051408465158367424 7.5495847347797278e-08 -9.4149932592170816e-08 3.9564463829927926e-08 -0.046401731085092393 -94.559718839999974 -158.71675115199997 77.626866652000004 109.98746742214213 0.0000000000000000 0.0000000000000000 0.0000000000000000 0.0000000000000000 3.3781157585503911 3.7869574482707411 1.4095526248814887 1.1879879293740048 3209.1866132980654 3251.6802782161899 1.1872258574513990 
-92.558027514465536 -160.13736435309303 66.803652959565028 -92.558027514465508 -160.13736435309301 66.803652959565042 -1303.2585934731262 -0.00014381119932015504 -0.00014207419799305436 -0.00018187650905606044 -1269.9352389375740 5.1689496571860608e-09 7.5850059566562322e-10 3.3555449824973493e-05 -0.088386958332667867 7.7124729598011276e-08 -1.1926803117441360e-07 1.9771173630392596e-08 -0.092824495319019817 -89.682139475999989 -158.46640519600001 82.438353807199988 112.88451412247700 0.0000000000000000 0.0000000000000000 0.0000000000000000 0.0000000000000000 3.3834217760878378 3.7965655416660478 1.4137903331945656 1.1879879293740057 2998.6395074773895 2880.1160468196822 1.1889363259181045 
-105.95968362436096 -156.53875995720972 71.518032540583846 -105.95968362436091 -156.53875995720963 71.518032540583832 -1281.6068785613143 -3.6094302592320968e-05 -3.4527141507962611e-05 -0.00019546762907694112 0.0000000000000000 5.8410316028378881e-09 7.2389050309595870e-10 3.2388450364351229e-05 -0.0053938931279490553 4.9841463974060514e-08 -8.3606403027824616e-08 3.6615435497459985e-08 0.0000000000000000 -102.70986659571734 -154.94403864466588 86.608986019839278 111.02505284862640 0.0000000000000000 0.0000000000000000 0.0000000000000000 0.0000000000000000 3.3856919094887568 3.8036197481095995 1.4186524512049656 1.1831707892008083 2994.6823693762849 3007.4831185228586 1.1912425957978077 
-103.59078541804010 -169.03333710540403 68.195960321375168 -103.59078541804004 -169.03333710540394 68.195960321375182 -1374.2653982570178 -1.8603497319298754e-05 -4.5171079912897363e-05 -0.00018972226014526568 0.0000000000000000 5.7222306337756379e-09 8.4403484201800428e-10 3.3210797489857669e-05 -0.097520088360146112 6.4917162952996150e-08 -8.7007777985428740e-08 -1.9576768934112447e-08 0.0000000000000000 -100.40706467681501 -167.17391327890167 83.670075146830683 105.53983917324770 0.0000000000000000 0.0000000000000000 0.0000000000000000 0.0000000000000000 3.3787545225382734 3.7883872379209018 1.4103416682070959 1.1840790621477162 3121.4369602242609 3072.6237369726246 1.1875965533812516 
-118.21584706998908 -100.20716584081084 82.780275587027745 -118.21584706998912 -100.20716584081084 82.780275587027745 -1017.9069769528203 -3.2977268502728480e-05 -4.9724383752239086e-05 -0.00014162671570746809 -1034.2044675661496 6.4556684441040388e-09 1.8216916863877938e-10 2.9600590067957452e-05 0.26004022767300189 -2.0835024681876118e-09 -4.9425124768633577e-08 1.0132084354018556e-07 0.26485567195251958 -114.62406224400000 -99.805851428000011 96.572263865600007 85.211636250682801 0.0000000000000000 0.0000000000000000 0.0000000000000000 0.0000000000000000 3.3927455132091002 3.8146731383046824 1.4219352771329061 1.1713047391714089 2527.7024231813116 2527.7474307847870 1.1923368074041991 
-114.57784036993121 -91.310476536568061 86.905020259470618 -114.57784036993121 -91.310476536568089 86.905020259470589 -946.25825674654095 -1.3423224307438490e-05 -2.2953070466604576e-06 -0.00015069855917130935 -936.69849289447427 6.2732178895963395e-09 9.6610941469066347e-11 2.8579549066876098e-05 0.25462221674762492 -3.7128136647080650e-09 -3.9261019181775950e-08 1.3620271245288332e-07 0.24633960065725016 -111.08756211600000 -91.097641973600034 100.22126851279998 99.535403830130534 0.0000000000000000 0.0000000000000000 0.0000000000000000 0.0000000000000000 3.4121703711893825 3.8616548740984693 1.4506008309074294 1.1807889608508515 2439.0690637447178 2439.0473913736600 1.2047453324785242 
-116.44677269525727 -98.010583850425078 96.135148039945861 -116.44677269525731 -98.010583850425078 96.135148039945832 -846.35960406438096 -1.4566530049135833e-05 -1.2064636414387820e-05 -0.00013918064729537158 -845.35857937738353 6.3669465920083727e-09 1.6104784172910058e-10 2.6294719432939928e-05 0.16409961326101549 -7.8462799905771285e-09 -4.1389851846346173e-08 6.7307727157583345e-08 0.15754244980529758 -112.90434805199999 -97.655804887999992 108.38681131359999 128.09762094244454 0.0000000000000000 0.0000000000000000 0.0000000000000000 0.0000000000000000 3.3847875391921742 3.8056300120577671 1.4217595661481222 1.1814717639099530 2231.6000238935881 2231.5906539900675 1.1924011661709781 
-110.53206041445794 -104.32985653830197 87.276796731533167 -110.53206041445800 -104.32985653830200 87.276796731533111 -930.11238548582457 -0.00016455945936666585 -1.5382899330427118e-05 -0.00015826564024422603 0.0000000000000000 6.0703339577194981e-09 2.2181390058051420e-10 2.8487519372788483e-05 0.19681766151450977 6.0777740641533013e-08 -4.1949789579078300e-08 9.2832138423469018e-08 0.0000000000000000 -107.15466629968294 -103.84120130723400 100.55016500991876 102.24201981555134 0.0000000000000000 0.0000000000000000 0.0000000000000000 0.0000000000000000 3.3335872965689402 3.6710581864560266 1.3367674346109701 1.1554911155757823 2250.6219900942069 2250.6663820778272 1.1557801958297709 
-28.083645763599996 -115.93623715909271 90.044647950536358 -28.083645763599982 -115.93623715909277 90.044647950536316 -235.13420289913429 0.00011132824580587086 3.7578779302369155e-05 -0.00013734836032642733 0.0000000000000000 -7.2963894626927592e-05 -0.00029445127003130292 0.00042320186047563319 0.065059993987557657 -7.8761846990326717e-09 -5.3608601166047008e-08 2.7174703709769817e-08 0.0000000000000000 -26.889884864405381 -115.37486796036181 103.37575244326078 96.382960025775517 0.0000000000000000 0.0000000000000000 0.0000000000000000 0.0000000000000000 3.5115270717677416 4.0859339175821390 1.5761249282515759 1.2533009008474612 1331.5644902733211 1330.1098098215668 1.2553518535294257 
-113.01500670565964 -104.10567931268000 145.65761117540265 -113.01500670565969 -104.10567931267998 145.65761117540268 -744.61110953696482 2.5144627657272910e-06 8.3357674548763240e-06 1.2330256649847980e-06 -748.16315637044374 6.1948459140204193e-09 2.1965740337748230e-10 1.4035908485254824e-05 0.016330511541156657 -1.2034835960685189e-09 -7.7107215579342801e-09 5.9390681288177025e-09 0.016669649305968572 -109.56833416800004 -103.62177336400003 152.19744990400002 70.302883591683823 0.0000000000000000 0.0000000000000000 0.0000000000000000 0.0000000000000000 3.3674699439772153 3.7604614078840926 1.3934463643433832 1.1810408402876338 2012.0533266401037 2012.0532123553637 1.1804914726374789 