# For a description of the Tecplot format see the Tecplot User's guide.
#
Variables=x,y,z,s_u,s_v,s_w,s_p,mono_f_vel_u,mono_f_vel_v,mono_f_vel_w,const,u_nu,v_nu,w_nu,p_nu,x_nu,y_nu,z_nu,const,u_ref,v_ref,w_ref,vol_ref,x_ref,y_ref,z_ref,const,I1,I2,I3,J,p1,p2,p3
Zone f=fepoint, n=3174, e=16683, et=brick, c=black
-25.6828 -155.372 103.437 -25.682790497287570 -155.37221566210826 103.43720246641449 -88.577674671194515 -2.6075288930361373e-05 -6.5373972773059681e-05 -8.7954649864053160e-05 -56.733556439812894 3.5845465484740657e-10 1.4070633547191846e-10 4.8512256931587672e-06 0.00024354278505988163 2.2111208207645162e-10 1.6698015015859884e-09 -1.6511809184304358e-09 0.00050518471344123035 -24.903554063199991 -154.16086777200002 112.24023381839994 89.724962256112903 0.0000000000000000 0.0000000000000000 0.0000000000000000 0.0000000000000000 3.2870339090165435 3.5909961129540298 1.3041862084269906 1.1427888460178000 1150.3775281132123 1150.4197997268616 1.1419528445522393 
-38.504337741660990 -156.54986275480124 106.31122529361674 -38.504337741660969 -156.54986275480130 106.31122529361667 -56.535258807159721 4.3976384147121929e-05 -5.6998954181046699e-06 -3.3473158266142362e-05 0.0000000000000000 -6.0922460109629061e-07 -2.5872189921081595e-07 4.3943704345921225e-06 -3.2126996043205872e-05 -7.4743465765697664e-10 3.4004988423213882e-10 -2.5194973286107681e-09 0.0000000000000000 -37.438273663334591 -155.10473791080037 114.93291110338620 89.036758072416930 0.0000000000000000 0.0000000000000000 0.0000000000000000 0.0000000000000000 3.3190016994956193 3.6639081460388674 1.3454861237970237 1.1553899473802169 1213.8391456505456 1213.8791247623637 1.1599871284665504 
-32.467924390029346 -148.98603439499459 111.80276969947936 -32.467924390029346 -148.98603439499453 111.80276969947940 -39.378416487682529 5.7434386769644851e-06 2.1342714118130769e-06 -3.9241431250920153e-05 0.0000000000000000 4.2564823887758512e-10 1.2857470643723445e-10 4.4409701409620084e-06 -0.00019028192952231677 1.7959726447889904e-10 5.4588430894586362e-10 1.0665343567391846e-09 0.0000000000000000 -31.542619574254449 -147.87907313389167 119.86135157363466 98.260374494724786 0.0000000000000000 0.0000000000000000 0.0000000000000000 0.0000000000000000 3.2958679998673115 3.6117236273987854 1.3162056948604668 1.1480181320432681 1125.1037679960316 1125.0979851370605 1.1472281669345386 
-29.509267491456139 -143.99272366738060 103.31018646921629 -29.509267491456143 -143.99272366738066 103.31018646921623 -42.425770054745968 -7.5817261711519576e-06 -3.4245332105723688e-05 8.8685890387886473e-06 0.0000000000000000 3.9635045245844935e-10 1.1909384589614547e-10 4.8574546731572354e-06 -0.00018924180180551897 -4.5294612177875239e-10 4.2700383897358622e-11 3.5073969964986952e-10 0.0000000000000000 -28.647655777685479 -142.96738158566356 112.12452093910819 112.69127588814607 0.0000000000000000 0.0000000000000000 0.0000000000000000 0.0000000000000000 3.3016451788714010 3.6245219441663599 1.3232974398710480 1.1487510359968656 1141.1241724885801 1141.1126860089901 1.1503489166794132 
-25.026978501286099 -202.41241272172314 61.161403673703916 -25.026978501286099 -202.41241272172311 61.161403673703930 -797.14850867886025 1.4886847980350173e-05 2.1086683267968106e-06 7.1111933292725350e-06 -804.42046241341893 3.5196295877781831e-10 2.3000246152093951e-10 6.9244719362870910e-06 -0.00064398237489753313 -4.0747615699541947e-11 -1.5136275470885970e-11 -1.2203283281525154e-11 -0.00064157899631648522 -24.261860196399997 -200.43215969199997 73.726546483199982 142.71380061529433 0.0000000000000000 0.0000000000000000 0.0000000000000000 0.0000000000000000 3.2832242771793285 3.5839796861297910 1.3010622948486679 1.1404748089761372 2401.7144612928537 2401.7191163654038 1.1406417873704042 
-24.920217753473402 -189.40674392458598 62.899403543433806 -24.920217753473398 -189.40674392458598 62.899403543433792 -777.58147559212489 3.3704930914357781e-05 -3.8618858835340527e-05 -1.1749904235046540e-05 -786.99225477659991 3.5090391703462837e-10 2.0532220368352222e-10 6.8392387326809967e-06 -0.00062953938527690243 -2.5200995720884938e-11 -1.2192164705453173e-11 -2.9908708159167453e-12 -0.00061203421420912430 -24.157397762799999 -187.63907770800003 75.309882232799993 165.73632395326644 0.0000000000000000 0.0000000000000000 0.0000000000000000 0.0000000000000000 3.2831411957719387 3.5837247766090874 1.3008868114408050 1.1404748089761361 2368.6510857132830 2368.7223672145738 1.1405622541819347 
-35.884395890052943 -197.30814918430727 69.800310173679932 -35.884395890052936 -197.30814918430744 69.800310173679932 -760.15255459673153 2.1687825379532679e-05 -2.8040521943385951e-05 -5.6996184528490030e-05 0.0000000000000000 4.5948161941922184e-10 2.2033108670882489e-10 6.5008115655018619e-06 -0.00067212238335428347 -7.5690785537398106e-11 -1.9620849527318944e-11 -6.8501386684407665e-12 0.0000000000000000 -34.885542273181727 -195.41132893576267 81.596679120775832 139.46796289390394 0.0000000000000000 0.0000000000000000 0.0000000000000000 0.0000000000000000 3.2811532887193557 3.5796484976028600 1.2988005826112481 1.1387575130397434 2331.6485524558066 2331.7096360208425 1.1396478487527846 
-19.468048237959600 -196.41186993486946 69.598639428448649 -19.468048237959589 -196.41186993486943 69.598639428448664 -790.83904741665799 1.7670618030705628e-05 -1.7692221844601574e-05 -2.7613914974546448e-05 0.0000000000000000 2.9691099578954550e-10 2.1861334964512483e-10 6.5107016951060351e-06 -0.00062710670188809972 -2.0318618763181385e-11 3.3790236493441132e-12 -1.7038966889985257e-12 0.0000000000000000 -18.822600960987238 -194.52970000168264 81.412954998504986 111.95285379220412 0.0000000000000000 0.0000000000000000 0.0000000000000000 0.0000000000000000 3.2834766118727998 3.5844526021158183 1.3012817664505001 1.1404748089761367 2401.4132014957268 2401.3104171076552 1.1407388761462085 
-23.393944908423592 -103.57255532430875 27.695409303946739 -23.393944908423592 -103.57255532430874 27.695409303946743 -629.06990471758218 -2.8364917773512832e-05 3.2602233311149958e-05 -4.5057840949914880e-05 -640.56266151440866 3.3579011793349878e-10 4.2352787943400472e-11 8.5656768149533491e-06 -0.0026972914277884033 -9.3224133941271079e-11 1.5416529235850413e-10 -1.7944326049750217e-10 -0.0027081260521722057 -22.663982073999996 -103.20790935200000 43.238681550399988 69.202643319072678 0.0000000000000000 0.0000000000000000 0.0000000000000000 0.0000000000000000 3.2827888133539700 3.5830423049811393 1.3005587888515449 1.1404748089761361 2110.5102456357822 2110.6956688779578 1.1404212653881560 
-31.046362533518501 -111.26346627051440 31.811800217254380 -31.046362533518501 -111.26346627051437 31.811800217254376 -604.68221616132166 5.4677182550482648e-06 4.9492809785709340e-05 -6.4576978690218914e-05 -600.07299930643933 4.1157027785843070e-10 5.6951998672616355e-11 8.3638050085710347e-06 -0.0026108110669654447 -8.1873744978658114e-11 2.6417440966160814e-10 -1.9367174480519143e-10 -0.0025454502539182769 -30.151660686400003 -110.77310694400001 46.988755992800002 74.715282964229786 0.0000000000000000 0.0000000000000000 0.0000000000000000 0.0000000000000000 3.2833683553739514 3.5842116691021100 1.3011479870620299 1.1404748089761390 2062.9413578578819 2063.2014576550714 1.1406806546799790 
-19.378673558973937 -103.93766222159866 35.126431647403784 -19.378673558973933 -103.93766222159866 35.126431647403777 -586.61090832610762 -3.5440931973913224e-05 2.4790401580120138e-05 -6.9061241303888893e-05 -589.41985738334631 2.9602531537165078e-10 4.3046899378396113e-11 8.2012522639729485e-06 -0.0025268042267638413 -1.5102108649139626e-10 1.8271390128228451e-10 -2.4472479979458891e-10 -0.0025316198435533952 -18.735150314000002 -103.56704831999998 50.008419303199993 79.719497061372692 0.0000000000000000 0.0000000000000000 0.0000000000000000 0.0000000000000000 3.2828179554008874 3.5830915077824081 1.3005784289632165 1.1404748089761365 2034.0347898180032 2033.7766841791224 1.1404291110318465 
-26.284059612220037 -98.773796057910189 36.195375300129015 -26.284059612220055 -98.773796057910189 36.195375300129029 -595.58621994935027 5.8465450164178740e-06 8.2618842259393632e-06 -0.00010941162241261852 0.0000000000000000 3.6441111239682295e-10 3.3245628472400313e-11 8.1488302221544018e-06 -0.0026606281845603760 -1.3582912913027923e-10 1.4059145607770815e-10 -2.4457924164376145e-10 0.0000000000000000 -25.491879232152165 -98.487589184379729 50.982237960580505 72.292163684038698 0.0000000000000000 0.0000000000000000 0.0000000000000000 0.0000000000000000 3.2829119685914354 3.5833474142933039 1.3007430460388898 1.1404748089761365 2048.2939950281457 2047.6405622489767 1.1405002002290958 
-26.124646817354304 -104.59202977922801 99.593299334371238 -26.124646817354311 -104.59202977922801 99.593299334371281 -32.952934090122987 9.1704767174506171e-06 4.6396401579202889e-05 1.5604334817790536e-05 0.0000000000000000 -1.6312624549175667e-07 4.5564114182599739e-07 4.1720329625069780e-06 -0.00063665084268459615 1.2630743564939547e-09 5.3164552408659981e-10 -2.6546424476147645e-09 0.0000000000000000 -25.283559732051039 -104.23282252886388 108.75695162467670 96.378087069502698 0.0000000000000000 0.0000000000000000 0.0000000000000000 0.0000000000000000 3.2977442151608458 3.6155106520732585 1.3181178419120625 1.1498567911030075 1104.0710110702867 1104.0708874429836 1.1480753209491072 
-26.772043284050664 -118.60454471174792 101.65657432645534 -26.772043284050678 -118.60454471174798 101.65657432645537 -14.377659446092883 -1.7531161808254398e-06 -7.2677052226027440e-06 -3.1647847909778040e-07 0.0000000000000000 -1.0118742351621523e-07 4.9005670011694108e-07 3.7525443020372094e-06 -0.00066288449197901989 1.9027193886018434e-10 -8.4114918851156515e-10 -1.7015527248967520e-09 0.0000000000000000 -25.913646985361510 -118.01095136745833 110.66456878241424 88.846747377876298 0.0000000000000000 0.0000000000000000 0.0000000000000000 0.0000000000000000 3.3196514164293935 3.6624574975610207 1.3432648167178061 1.1554163370533792 1153.5444725656739 1153.5439787694224 1.1590114065293906 
-37.385586618459151 -113.15502835814071 103.16301043824758 -37.385586618459151 -113.15502835814063 103.16301043824754 -18.008622289585865 -2.2806977705669427e-05 -1.1451706437200344e-05 -5.1232599505445112e-06 0.0000000000000000 -7.0270476221407231e-07 1.6656720880643167e-06 3.0079542494499064e-06 -0.00027016991901797235 -6.7303528619202131e-10 -8.5713404102991650e-10 -3.1809986603550567e-10 0.0000000000000000 -36.236867317722961 -112.72601430119678 112.03758904139967 95.996160021407249 0.0000000000000000 0.0000000000000000 0.0000000000000000 0.0000000000000000 3.3170988662054977 3.6573167460650104 1.3406942556866068 1.1569497237304027 1158.4170861786795 1158.4169739657164 1.1578823191387599 
-34.423883192394250 -105.38765234049895 96.084006548811999 -34.423883192394236 -105.38765234049892 96.084006548811928 -27.080266074846925 -1.1152203098145275e-05 4.2744387600286681e-05 1.8089586195181516e-05 0.0000000000000000 -5.7892444955424006e-07 1.8465318041419096e-06 3.1181244704363688e-06 -0.00062058100927767979 7.2875641137499825e-10 4.1114828714835388e-10 -7.3992230839758708e-10 0.0000000000000000 -33.380789828628046 -105.09637623893835 105.63342596379557 85.433794965156210 0.0000000000000000 0.0000000000000000 0.0000000000000000 0.0000000000000000 3.3184092353419845 3.6593121595449949 1.3413330883430090 1.1552205001609217 1142.2694095915538 1142.2694010378798 1.1581586425981998 
-114.91972544712408 -161.98288351439811 117.07485011617723 -114.91972544712409 -161.98288351439808 117.07485011617723 -231.33788642709575 7.0419869611913508e-06 -2.0610551404509110e-05 -3.5481862919654319e-05 -229.46038825839955 1.2421593198475023e-09 1.5326473423726836e-10 4.1824221987951660e-06 -0.0010377835423542863 -1.0120735988882495e-11 3.1879671503313154e-11 -2.1736787990904460e-10 -0.0010057487969827126 -112.21942232800005 -160.66347960400000 124.66427103520003 147.55923210393107 0.0000000000000000 0.0000000000000000 0.0000000000000000 0.0000000000000000 3.2888232823898140 3.5969243326993880 1.3084733734398546 1.1404748089761367 1436.0754756456483 1436.0805118537464 1.1439140271610024 
-101.95379379886144 -159.37140643840937 108.20620171915691 -101.95379379886147 -159.37140643840937 108.20620171915695 -251.63049786825331 -3.0817336236048695e-05 -3.1384955974605462e-05 -7.0962776369014625e-05 0.0000000000000000 1.1137678002093312e-09 1.4828827055168858e-10 4.6173493331025384e-06 -0.0011621705467335119 -7.5097807686255272e-11 2.9219601362926139e-10 -3.3149240240720937e-10 0.0000000000000000 -99.532617471171264 -158.09468895943013 116.58484116745363 117.70414803503969 0.0000000000000000 0.0000000000000000 0.0000000000000000 0.0000000000000000 3.2699211365005003 3.5510632699298981 1.2811726501673590 1.1336821386724678 1402.6920295630669 1402.6803208987883 1.1318619685983498 
-106.86956414948661 -149.97815803307188 112.93383166347178 -106.86956414948659 -149.97815803307188 112.93383166347172 -208.88092419281691 -2.3405923758721348e-05 -4.3942713441924062e-05 -1.9766934736088103e-05 0.0000000000000000 1.1624453066794160e-09 1.3046430602514647e-10 4.3855017608507296e-06 -0.0011512205449291087 1.5224062707165355e-10 3.2986248010839032e-11 -3.3562327800332808e-10 0.0000000000000000 -104.34256255272837 -148.85497981259945 120.89176065121424 119.29379793442074 0.0000000000000000 0.0000000000000000 0.0000000000000000 0.0000000000000000 3.2698156010195638 3.5528293504319630 1.2831696161272186 1.1349889906803912 1330.9898271791981 1331.0071705686269 1.1327398725684814 
-102.97353879504954 -163.62937163571499 116.96897249507927 -102.97353879504954 -163.62937163571499 116.96897249507934 -230.04249581171626 -1.2941828714183141e-05 -4.8782520948670745e-05 -3.6581666510945747e-05 0.0000000000000000 1.1238566188787047e-09 1.5638623729330445e-10 4.1876145431274381e-06 -0.00099815487194548154 8.6881782411197860e-12 4.1078934863943208e-11 -1.6621332960646180e-10 0.0000000000000000 -100.53040969477119 -162.28305471776312 124.56781543385799 141.51484144144280 0.0000000000000000 0.0000000000000000 0.0000000000000000 0.0000000000000000 3.2713455421308981 3.5575476446301053 1.2864133565201643 1.1348773025417260 1374.1113755083597 1374.1139593478365 1.1341834047988515 
-80.356769466184971 -149.91966001721784 78.418818614555491 -80.356769466184943 -149.91966001721786 78.418818614555477 -301.10970464424565 -8.5985339872362686e-05 -6.1658154080997742e-05 -3.0864511884624492e-05 -305.13534762952804 8.9989421470093589e-10 1.3034484602769680e-10 6.0781515465180283e-06 -0.0012743656481963663 -1.1357706945467164e-11 1.2495819612672781e-10 -3.5186833483175781e-11 -0.0012474391950952125 -78.400527573600002 -148.79743798799998 89.448228916799977 108.06316173413846 0.0000000000000000 0.0000000000000000 0.0000000000000000 0.0000000000000000 3.2930377755166238 3.6042836434062533 1.3115775672636081 1.1404748089761365 1578.0996316943251 1578.1694847263514 1.1453024428029157 
-82.144081922174919 -163.88514198030953 76.579959895345908 -82.144081922174934 -163.88514198030953 76.579959895345908 -446.51694055747879 -4.4773632627652412e-05 -0.00011973040106492623 -5.8291515794446435e-05 -450.44332354392304 9.1758872722280681e-10 1.5685119869601749e-10 6.1683309624527291e-06 -0.0012069939798063708 2.0706671806371911e-10 1.0462592789812134e-10 1.2551809731608508e-10 -0.0012759278937825235 -80.149363288800018 -162.53464431600008 87.773009718400019 109.57810873427631 0.0000000000000000 0.0000000000000000 0.0000000000000000 0.0000000000000000 3.2942311594778535 3.6064988956234587 1.3125801189116688 1.1404748089761350 1828.5822453380385 1828.7752052177811 1.1457596656492384 
-86.381417366650012 -161.49587681977457 84.483477184924865 -86.381417366650069 -161.49587681977451 84.483477184924880 -372.82895611073553 -2.5328702988487537e-05 -7.5862962574594156e-05 -0.00011644423607968301 0.0000000000000000 9.5954516554641600e-10 1.5231882422028773e-10 5.7807347921823293e-06 -0.0012465480119258946 -1.6063469828360929e-10 -1.0645618545135720e-10 -1.1805492146782036e-10 0.0000000000000000 -84.295478612813938 -160.18443337667750 94.973195224810283 106.11323630727971 0.0000000000000000 0.0000000000000000 0.0000000000000000 0.0000000000000000 3.2566656941914256 3.5299934748033861 1.2736338278508159 1.1307145328853605 1569.6068842740212 1569.4948699290183 1.1284404739225733 
-88.607880075878995 -152.55545507107146 81.916315880231565 -88.607880075878953 -152.55545507107138 81.916315880231593 -344.41128143733926 -3.3908399851373821e-05 -0.00010029195532284010 -0.00010791843237292390 0.0000000000000000 9.8159463890468146e-10 1.3533996146009031e-10 5.9066308786270838e-06 -0.0014341353322504750 -4.1432172922362676e-10 2.9509155662693012e-10 -9.4472458963232842e-12 0.0000000000000000 -86.474010682800568 -151.39014911596544 92.634484883397832 94.367740677547317 0.0000000000000000 0.0000000000000000 0.0000000000000000 0.0000000000000000 3.2694266653651405 3.5561471566317375 1.2870393961067528 1.1331681941722487 1559.2194920044542 1558.7546443301244 1.1344748779382601 
-26.822426720000934 -133.28114896369553 132.42083885995098 -26.822426720000923 -133.28114896369556 132.42083885995095 -91.351310444156596 1.8285480174339565e-05 -1.9647158968672932e-05 9.1094798207432313e-05 -104.18235592764115 3.6974251438337546e-10 9.8770991385777052e-11 3.4298399960164261e-06 -0.00056806344444289725 4.5617066320823454e-11 -1.8177213812240820e-12 3.8800965456529224e-10 -0.00060746542813974920 -26.018656529999991 -132.43089511199997 138.64462455200004 49.421240865332216 0.0000000000000000 0.0000000000000000 0.0000000000000000 0.0000000000000000 3.2818999916975709 3.5808419976905923 1.2992374831417346 1.1421104479574355 1169.8821028212665 1169.8833607937083 1.1398479407323097 
-33.441715214775350 -134.83242385191946 131.27741115799057 -33.441715214775364 -134.83242385191946 131.27741115799060 -79.319855769384873 -2.2471343227004190e-06 1.5183249987625044e-05 2.7601573966790548e-05 -9.3086655196226520 4.3529252424789888e-10 1.0169887154631851e-10 3.4859147994836799e-06 -0.00057002236492326858 -7.9387943944459512e-11 -1.2065978078918555e-10 4.4564224994174195e-10 -0.00042550595428045101 -32.495446914399992 -133.95681332000001 137.60295016000006 48.530522504776933 0.0000000000000000 0.0000000000000000 0.0000000000000000 0.0000000000000000 3.2982517438012011 3.6172221966990752 1.3193696968019604 1.1479932243272397 1204.3135952080631 1204.3138191172955 1.1486324133480854 
-29.274767318912815 -137.35563124116211 134.24891921737321 -29.274767318912822 -137.35563124116214 134.24891921737321 -88.837350275523349 1.9482372605850221e-05 2.9798121770092367e-05 2.5830182827609888e-05 -98.805515669080009 3.9402586748948920e-10 1.0648126824719383e-10 3.3401891705864273e-06 -0.00071435137871753878 1.5685066665894093e-10 -2.9781991677931300e-10 -5.1574669238523237e-12 -0.00080200670417874913 -28.418203856399998 -136.43877710800004 140.31002455199999 44.353383947079159 0.0000000000000000 0.0000000000000000 0.0000000000000000 0.0000000000000000 3.2835435821751151 3.5842552214709311 1.3010024006129381 1.1433469321344769 1170.8295861869569 1170.8304957479788 1.1406193325843330 
-27.588630288055857 -130.30331620330588 138.13285981464668 -27.588630288055857 -130.30331620330585 138.13285981464665 -108.71943615135321 1.6424053660705722e-05 2.0278827477368240e-05 9.4197889756446746e-06 0.0000000000000000 3.7733088875668841e-10 9.3111518495447854e-11 3.1497169352689980e-06 -0.00066319557887748869 -4.4954300010947979e-11 -7.5514092940820071e-11 1.1817920380209420e-10 0.0000000000000000 -26.768365491316434 -129.50173712462359 143.84833436668455 49.139845408488213 0.0000000000000000 0.0000000000000000 0.0000000000000000 0.0000000000000000 3.2856204497518324 3.5898412602617209 1.3045640909009573 1.1433321973878012 1225.4146528444219 1225.4133884756341 1.1421722801121643 
-41.181653354356627 -65.213714711937598 149.22499224466191 -41.181653354356627 -65.213714711937627 149.22499224466191 -189.67293106144729 -2.3536419586902219e-06 -7.9958868656180487e-06 3.1052948998593203e-05 -193.24847697339007 5.1193999039966798e-10 -3.0466962286368471e-11 2.6057479907137804e-06 -0.00090557695975923601 -3.3403844133236739e-11 -2.3973508048505729e-13 3.8974552321190076e-11 -0.00090695937136258200 -40.068761925200000 -65.476070995999990 153.95338104800004 156.95717166164070 0.0000000000000000 0.0000000000000000 0.0000000000000000 0.0000000000000000 3.2816431576543525 3.5808383801698067 1.2995096861776108 1.1393521765823971 1340.3011523900518 1340.1438987364384 1.1399626332380985 
-53.811541888121205 -59.296702250580999 144.07733732780380 -53.811541888121191 -59.296702250580999 144.07733732780383 -190.83810486693770 -1.7596587447799998e-05 -8.2089107876653356e-07 1.4428040816566686e-05 -193.42017182547610 6.3701249830572237e-10 -4.1708636544512956e-11 2.8581939908178811e-06 -0.00092478844009461143 -1.1937325621854030e-11 7.5126186005105768e-12 -1.9110033581812689e-11 -0.00091158469165236744 -52.426757905599978 -59.655776269200025 149.26381449600007 118.05125250056595 0.0000000000000000 0.0000000000000000 0.0000000000000000 0.0000000000000000 3.2841300040519337 3.5862125802710589 1.3024064794682408 1.1393807283586965 1350.6207043704085 1350.5599462463433 1.1412334157563075 
-36.178093516025235 -65.776614883146181 139.39657413423134 -36.178093516025235 -65.776614883146181 139.39657413423132 -175.83634030056371 3.9870988470209023e-06 -3.7008959893718044e-06 -2.1808028366717802e-06 -175.04330321044137 4.6239106987755458e-10 -2.9401148182728321e-11 3.0877431704823266e-06 -0.00088360910229603649 -3.5505641100559403e-11 3.3407658678724294e-11 -3.0648921679131959e-11 -0.00087151130781349577 -35.172917262399999 -66.029770167599992 144.99959110400002 155.12084301790807 0.0000000000000000 0.0000000000000000 0.0000000000000000 0.0000000000000000 3.2831848608200427 3.5837172871234824 1.3008337638745071 1.1401365884184846 1321.2323872634281 1321.6106862925731 1.1405411300289008 
-51.753303062705974 -66.346284555853529 136.32732171837480 -51.753303062705974 -66.346284555853558 136.32732171837475 -179.92696708154804 -1.3452805167950961e-05 1.2669586925884940e-05 6.7635290812561178e-06 0.0000000000000000 6.1662813743978973e-10 -2.8329782963965044e-11 3.2382622840998465e-06 -0.00092455948426734382 -2.3084777038891119e-11 -2.3238868511954403e-12 -1.8096055143129008e-11 0.0000000000000000 -50.412828244765279 -66.590128188430739 142.20347059834828 136.07757377940416 0.0000000000000000 0.0000000000000000 0.0000000000000000 0.0000000000000000 3.2750869515031322 3.5655372455969050 1.2906723511605518 1.1373373910488411 1299.0670789141366 1299.2283580913891 1.1360732034287080 
-96.871484701090580 -160.00380564118967 65.442716684536762 -96.871484701090580 -160.00380564118970 65.442716684536762 -577.43056446221044 -2.9979554824303910e-05 -3.0753600500170661e-05 -5.6295598313830238e-05 -577.50844910201454 1.0634382818786037e-09 1.4948287052618525e-10 6.7145121924738768e-06 -0.0014513755844340734 -2.6197940273902850e-10 2.8827064424468660e-10 -1.1595306767363961e-10 -0.0013773695897572153 -94.559718839999974 -158.71675115199997 77.626866652000004 109.98746742214213 0.0000000000000000 0.0000000000000000 0.0000000000000000 0.0000000000000000 3.2824005183526785 3.5822515603372644 1.3001573430397284 1.1404748089761358 2017.4052011986287 2016.5934448199766 1.1402420013459977 
-91.886592022729602 -159.74929960484044 70.724201708201036 -91.886592022729630 -159.74929960484044 70.724201708201022 -510.00650391291151 -8.0848485463464657e-05 -7.5036774384227726e-05 -9.7421687302975900e-05 -489.40670114846239 1.0140746575793003e-09 1.4900014555507823e-10 6.4555030334645380e-06 -0.0013422935754640402 -2.3921503708626343e-10 3.6758120201585255e-10 -2.1151764977404198e-11 -0.0012895847948687189 -89.682139475999989 -158.46640519600001 82.438353807199988 112.88451412247700 0.0000000000000000 0.0000000000000000 0.0000000000000000 0.0000000000000000 3.2845389082216361 3.5862490056997625 1.3020021570739426 1.1404748089761356 1897.7553816562652 1896.9804312311137 1.1410466391398022 
-105.20094668276451 -156.16840074043390 75.302231506422629 -105.20094668276445 -156.16840074043384 75.302231506422672 -496.69047996235128 -1.7243076640902738e-05 -9.5454276299003142e-06 -0.00012094981098229651 0.0000000000000000 1.1459149740211672e-09 1.4222600874802538e-10 6.2309919961478499e-06 -0.0016219981747118265 -2.1108442654424942e-10 3.0324201363646680e-10 -1.6814981223267782e-10 0.0000000000000000 -102.70986659571734 -154.94403864466588 86.608986019839278 111.02505284862640 0.0000000000000000 0.0000000000000000 0.0000000000000000 0.0000000000000000 3.2844175010155690 3.5865777851849296 1.3024701042694431 1.1386312961920739 1890.2429001084799 1897.4479068142075 1.1412742366369568 
-102.84748002059669 -168.60150318770263 72.076240609844291 -102.84748002059675 -168.60150318770263 72.076240609844277 -544.82838510192926 -7.4138529731718349e-06 -1.9115942250569926e-05 -0.00011698618123842135 0.0000000000000000 1.1226113927342849e-09 1.6582624162708726e-10 6.3891977326591132e-06 -0.0013304718745439481 -1.8544970757023751e-10 1.4850310950387411e-10 -4.5277567947584159e-11 0.0000000000000000 -100.40706467681501 -167.17391327890167 83.670075146830683 105.53983917324770 0.0000000000000000 0.0000000000000000 0.0000000000000000 0.0000000000000000 3.2824316491076169 3.5823071997591289 1.3001795676919483 1.1389966790383068 1953.0259678344012 1952.1006048598667 1.1402559173789557 
-117.37727067946506 -100.11396429491040 86.238746773250554 -117.37727067946504 -100.11396429491039 86.238746773250554 -346.22237576728651 -1.7852034134183904e-05 -2.5526699934644690e-05 -7.8413431069335686e-05 -355.55517107900107 1.2664994044378634e-09 3.5793590313915053e-11 5.6946546571623458e-06 -0.0026389313376859219 -6.9468318373361145e-11 -5.6517532608346860e-11 -3.5853990297234589e-10 -0.0026368808195422616 -114.62406224400000 -99.805851428000011 96.572263865600007 85.211636250682801 0.0000000000000000 0.0000000000000000 0.0000000000000000 0.0000000000000000 3.2849422361230367 3.5876596273645802 1.3029782047856302 1.1347195146293654 1620.6002686394229 1620.6012401539122 1.1414547866827414 
-113.76296278624963 -91.261047685631141 90.244195145826964 -113.76296278624962 -91.261047685631169 90.244195145826993 -306.47279545123263 -6.2973415918954591e-06 1.3901984561095675e-06 -8.4608594850958313e-05 -302.80722126924320 1.2307071473038889e-09 1.8981261007411376e-11 5.4982235901945842e-06 -0.0025379335674864099 2.7499528126899184e-11 1.7567131544013514e-10 -4.6269358858328487e-10 -0.0024286385456521007 -111.08756211600000 -91.097641973600034 100.22126851279998 99.535403830130534 0.0000000000000000 0.0000000000000000 0.0000000000000000 0.0000000000000000 3.2932755957496416 3.6049666408113690 1.3120289920437886 1.1382597062432267 1579.6354647953146 1579.6352293668645 1.1454556870289034 
-115.61972045940179 -97.928189730763691 99.207368198446702 -115.61972045940182 -97.928189730763719 99.207368198446673 -243.62788997537689 -1.0292556138955269e-05 -8.8583088108004910e-06 -9.2668939528638158e-05 -244.49626678908587 1.2490897760564224e-09 3.1639579844977561e-11 5.0586608715264001e-06 -0.0022331561287754404 -8.8172774126795507e-11 -1.3729155572096028e-10 -4.7121665949068563e-10 -0.0022102758168860456 -112.90434805199999 -97.655804887999992 108.38681131359999 128.09762094244454 0.0000000000000000 0.0000000000000000 0.0000000000000000 0.0000000000000000 3.2842310095822445 3.5869835039885065 1.3030939274707942 1.1389599433097470 1449.9033510175107 1449.9032384331219 1.1415181323786920 
-109.74353796577111 -104.21637089837969 90.605219059606142 -109.74353796577104 -104.21637089837972 90.605219059606085 -297.13151677147260 -8.3072334351725553e-05 -1.0924754711644624e-05 -9.0669246298934151e-05 0.0000000000000000 1.1909078723171262e-09 4.3573589181278294e-11 5.4805186131545716e-06 -0.0025916049638218539 1.4423001632405282e-10 -1.7289497768036728e-10 -3.1228332156679628e-10 0.0000000000000000 -107.15466629968294 -103.84120130723400 100.55016500991876 102.24201981555134 0.0000000000000000 0.0000000000000000 0.0000000000000000 0.0000000000000000 3.2683472927489232 3.5488030021553638 1.2805730384786143 1.1312556458194243 1473.1160649501041 1473.1210135635113 1.1315940573770891 
-27.721636226224039 -115.92591727931521 93.591347007783597 -27.721636226224057 -115.92591727931527 93.591347007783540 -27.253145684905725 3.1248889415378908e-05 2.9687974699738743e-06 -3.7513271365431927e-05 0.0000000000000000 -7.6277694852513891e-08 7.1578228283718533e-07 4.1137109685346879e-06 -0.0011931162163911987 4.3257103319295705e-10 -1.1296853374400784e-09 -1.0374440130563045e-09 0.0000000000000000 -26.889884864405381 -115.37486796036181 103.37575244326078 96.382960025775517 0.0000000000000000 0.0000000000000000 0.0000000000000000 0.0000000000000000 3.3125931196181577 3.6474042745718580 1.3352425674958852 1.1543176870726850 1136.8082382522118 1136.8045117694228 1.1555233190598668 
-112.21030977753756 -103.99329664949204 147.29753743901020 -112.21030977753755 -103.99329664949208 147.29753743901023 -180.16193593126684 -7.9391035701953927e-07 -2.3740782601874011e-06 2.3279406315138112e-08 -180.84456301724956 1.2153389961078174e-09 4.3153702833365060e-11 2.7002722404745327e-06 -0.00084487589100509125 1.9894721774765223e-12 3.3781948462758933e-12 1.2216805862765433e-11 -0.00082989511595681293 -109.56833416800004 -103.62177336400003 152.19744990400002 70.302883591683823 0.0000000000000000 0.0000000000000000 0.0000000000000000 0.0000000000000000 3.2800921483448544 3.5767414233698385 1.2969237366766360 1.1390254828653050 1317.4280223202188 1317.4434207528452 1.1388274039795259 