# For a description of the Tecplot format see the Tecplot User's guide.
#
Variables=x,y,z,s_u,s_v,s_w,s_p,mono_f_vel_u,mono_f_vel_v,mono_f_vel_w,const,u_nu,v_nu,w_nu,p_nu,x_nu,y_nu,z_nu,const,u_ref,v_ref,w_ref,vol_ref,x_ref,y_ref,z_ref,const,I1,I2,I3,J,p1,p2,p3
Zone f=fepoint, n=3174, e=16683, et=brick, c=black
-25.2696 -154.732 108.261 -25.269644236462515 -154.73156063710383 108.26075588433656 -75.505978331565586 -1.4162799497890574e-05 -4.5418389421800007e-05 -5.8224433459943371e-05 -62.403981713655611 8.3961088082062929e-10 4.3526549031724916e-10 2.6461879603090210e-06 0.00072509199983652062 2.9078020836846766e-11 1.3025459468820126e-10 -1.9065283823990283e-10 0.00070195465328080518 -24.903554063199991 -154.16086777200002 112.24023381839994 89.724962256112903 0.0000000000000000 0.0000000000000000 0.0000000000000000 0.0000000000000000 3.1288108632591989 3.2610654928973086 1.1322727786916478 1.0645290839046793 598.31039549529726 598.31039446864065 1.0640674056686872 
-37.943094131594471 -155.80692752642082 111.02619371983018 -37.943094131594457 -155.80692752642071 111.02619371983018 -53.546846625623587 3.3234282550472644e-05 -1.9415586778332588e-05 -2.4494993171562396e-05 0.0000000000000000 -5.4338390411900606e-08 1.0326830677402920e-07 2.7015643413239988e-06 0.00078877574811176516 1.2312002262331777e-10 -1.3733947341915215e-10 -7.5459115601615843e-11 0.0000000000000000 -37.438273663334591 -155.10473791080037 114.93291110338620 89.036758072416930 0.0000000000000000 0.0000000000000000 0.0000000000000000 0.0000000000000000 3.1473789700111756 3.3004936638531643 1.1531756867636276 1.0714547119401920 629.36821881663286 629.36821797010100 1.0738713572660641 
-31.977333591091099 -148.40058714222602 116.21840774374456 -31.977333591091107 -148.40058714222599 116.21840774374458 -40.239868394664441 7.4463046971042280e-06 -1.0736426158703968e-05 -2.0092439472547742e-05 0.0000000000000000 9.9699848377099422e-10 3.9775904792094247e-10 2.4224067338707300e-06 0.00071349573459962763 4.9140379007531819e-11 1.3052295141040192e-10 1.5193901405192427e-11 0.0000000000000000 -31.542619574254449 -147.87907313389167 119.86135157363466 98.260374494724786 0.0000000000000000 0.0000000000000000 0.0000000000000000 0.0000000000000000 3.1348239295636620 3.2739663770007046 1.1391774105421364 1.0678252824322343 573.21545571233571 573.21545555373859 1.0673114261540879 
-29.052446374968895 -143.45044298784612 108.13993334378200 -29.052446374968895 -143.45044298784612 108.13993334378208 -41.959223907649140 2.3780877980712111e-06 -2.7783606369709013e-05 -6.5589406189215724e-06 0.0000000000000000 9.2836849319155590e-10 3.6841008022037153e-10 2.6495856761954424e-06 0.00070880370205245061 2.4034214481565015e-10 2.9236863407823532e-11 9.1858191798181873e-11 0.0000000000000000 -28.647655777685479 -142.96738158566356 112.12452093910819 112.69127588814607 0.0000000000000000 0.0000000000000000 0.0000000000000000 0.0000000000000000 3.1380256326056704 3.2807206108633511 1.1427395707341443 1.0681224439349628 582.82176590160987 582.82176713210583 1.0689904395660177 
-24.621317583848850 -201.36510082674059 68.046377169993235 -24.621317583848850 -201.36510082674062 68.046377169993221 -437.43289658326319 5.5979564777575465e-06 6.1994851840533736e-07 2.8599735481396379e-06 -440.81570666622417 8.2439849391491304e-10 7.1152761460524516e-10 3.7770772678413778e-06 0.00078054108502225057 -6.6641321979225483e-12 -3.4608344135324725e-12 -4.2239636308695183e-12 0.00078109658141270596 -24.261860196399997 -200.43215969199997 73.726546483199982 142.71380061529433 0.0000000000000000 0.0000000000000000 0.0000000000000000 0.0000000000000000 3.1269132940412607 3.2574599218796796 1.1305762511841342 1.0632098987002383 1235.5550782985854 1235.5550707579207 1.0632857503269826 
-24.515775387789688 -188.47186447877689 69.699630022990746 -24.515775387789688 -188.47186447877692 69.699630022990746 -427.79680202751797 1.4687887902324932e-05 -1.8041103916475189e-05 -5.3764827535341107e-06 -431.82608284047558 8.2192214145848652e-10 6.3514360437721962e-10 3.7305852895741501e-06 0.00077790882468117589 -1.4496561211090470e-11 1.1328815168319117e-11 7.1231126435676988e-12 0.00078313391751692212 -24.157397762799999 -187.63907770800003 75.309882232799993 165.73632395326644 0.0000000000000000 0.0000000000000000 0.0000000000000000 0.0000000000000000 3.1268647142497907 3.2573439049031103 1.1305084514154617 1.0632098987002372 1219.2749568785164 1219.2749517202769 1.0632532714530869 
-35.354809978935819 -196.30496303631165 76.264039936609962 -35.354809978935833 -196.30496303631182 76.264039936610018 -420.47846237133643 8.3778527981198848e-06 -1.3331285899797102e-05 -2.7675518779796264e-05 0.0000000000000000 1.0762464808244943e-09 6.8155536769864976e-10 3.5459841321028315e-06 0.00077236348350940242 -1.2910629450229724e-11 1.0463358065075523e-11 1.9457519944252666e-12 0.0000000000000000 -34.885542273181727 -195.41132893576267 81.596679120775832 139.46796289390394 0.0000000000000000 0.0000000000000000 0.0000000000000000 0.0000000000000000 3.1259763944218686 3.2555473865734292 1.1296004682927856 1.0624139725521304 1203.3558203412954 1203.3558446159871 1.0628261883564962 
-19.125836147539200 -195.41643201364550 76.072202905591325 -19.125836147539193 -195.41643201364545 76.072202905591382 -433.72635648391105 7.5941100931083295e-06 -8.3547177013821808e-06 -1.3250043319166090e-05 0.0000000000000000 6.9545744163512779e-10 6.7630379074756775e-10 3.5513788816388110e-06 0.00078011800870306312 -9.3905118799514805e-12 1.0353038075493291e-11 1.2735742602738631e-12 0.0000000000000000 -18.822600960987238 -194.52970000168264 81.412954998504986 111.95285379220412 0.0000000000000000 0.0000000000000000 0.0000000000000000 0.0000000000000000 3.1270227572224383 3.2576724473864505 1.1306792058542643 1.0632098987002370 1234.5324581818827 1234.5324569964134 1.0633343617127837 
-23.006923200517317 -103.37970215932214 36.212225951789669 -23.006923200517317 -103.37970215932215 36.212225951789669 -370.05695162616223 -1.5722655873510965e-05 1.7327898502329022e-05 -2.3891489014094852e-05 -375.58166659282006 7.8652223622910356e-10 1.3102785523244620e-10 4.6723018805039365e-06 0.00052622567472778532 -6.4559777901697210e-12 -6.8266068940843193e-12 1.3105217362379125e-11 0.00053377630569081188 -22.663982073999996 -103.20790935200000 43.238681550399988 69.202643319072678 0.0000000000000000 0.0000000000000000 0.0000000000000000 0.0000000000000000 3.1267091472476527 3.2570376030836958 1.1303579212532249 1.0632098987002365 1119.1108576147928 1119.1108576139795 1.0631831384395498 
-30.571997236260419 -111.00412610147248 40.127896568345307 -30.571997236260419 -111.00412610147248 40.127896568345307 -356.90731258118404 3.0576576218004634e-06 2.6984787687810561e-05 -3.3827267467910341e-05 -353.34107368299777 9.6402474891732481e-10 1.7618695391519171e-10 4.5621872821755005e-06 0.00052242004058895809 8.5039778112131960e-12 -1.6234416450760092e-12 1.6631880781135220e-11 0.00053755725600898748 -30.151660686400003 -110.77310694400001 46.988755992800002 74.715282964229786 0.0000000000000000 0.0000000000000000 0.0000000000000000 0.0000000000000000 3.1270012608199536 3.2576250165114011 1.1306531677301961 1.0632098987002367 1093.8049114965327 1093.8049114955859 1.0633223090248654 
-19.037481578228963 -103.74165275121071 43.280902482771147 -19.037481578228959 -103.74165275121071 43.280902482771133 -347.23536025347931 -1.9186509313088586e-05 1.3146690331484662e-05 -3.6142875852874013e-05 -348.31781816005838 6.9338290664688884e-10 1.3316514557715209e-10 4.4735199704604165e-06 0.00052302830048207751 -6.5466583512785613e-12 -1.1414343343314599e-11 7.0350584841889552e-12 0.00052461445549723061 -18.735150314000002 -103.56704831999998 50.008419303199993 79.719497061372692 0.0000000000000000 0.0000000000000000 0.0000000000000000 0.0000000000000000 3.1267221683221931 3.2570616748647403 1.1303689297821788 1.0632098987002387 1078.0645866057041 1078.0645866047307 1.0631880977208268 
-25.864050552572767 -98.622427592075226 44.297723124901701 -25.864050552572770 -98.622427592075240 44.297723124901715 -352.70762128370200 2.3871033539068040e-06 5.0080933574242491e-06 -5.7644286680426067e-05 0.0000000000000000 8.5355944534626360e-10 1.0284251228398489e-10 4.4449254321676798e-06 0.00051943972371954752 -1.0625674989738803e-11 -3.0657172284061117e-12 4.0234594783238876e-12 0.0000000000000000 -25.491879232152165 -98.487589184379729 50.982237960580505 72.292163684038698 0.0000000000000000 0.0000000000000000 0.0000000000000000 0.0000000000000000 3.1267611303760541 3.2571542609693815 1.1304228282900615 1.0632098987002374 1086.7722388488039 1086.7722388479817 1.0632131834566598 
-25.688802218142960 -104.39498476254157 104.61229710758917 -25.688802218142964 -104.39498476254161 104.61229710758923 -34.840012493607666 8.1838358013799757e-06 3.1711262345573896e-05 5.7607449129359308e-06 0.0000000000000000 2.7410668587735833e-08 4.8008617276939583e-08 2.8549214303514086e-06 0.00049739203510976409 -2.1482100062468801e-10 -2.1977954676519283e-11 4.1141547118450790e-10 0.0000000000000000 -25.283559732051039 -104.23282252886388 108.75695162467670 96.378087069502698 0.0000000000000000 0.0000000000000000 0.0000000000000000 0.0000000000000000 3.1360349926660729 3.2763861000327514 1.1403846685133920 1.0689823010883825 558.44414860941242 558.44414859377548 1.0678809078002720 
-26.329015971954998 -118.28246857083352 106.58779924656099 -26.329015971954988 -118.28246857083343 106.58779924656106 -19.051509620625300 5.1517966875857901e-06 -3.1994845152439297e-06 -5.3115802512013911e-06 0.0000000000000000 7.7096990868489376e-09 1.5038289024872456e-07 2.9108779089444217e-06 0.00052245222626014719 -2.6576326866202379e-10 2.0871923712391830e-10 4.0714239697966155e-10 0.0000000000000000 -25.913646985361510 -118.01095136745833 110.66456878241424 88.846747377876298 0.0000000000000000 0.0000000000000000 0.0000000000000000 0.0000000000000000 3.1499901813834579 3.3053306200328749 1.1553919209159009 1.0726838563622585 584.76091801920859 584.76091811237109 1.0748993605141388 
-36.802602331899330 -112.90319263646911 108.02583987480621 -36.802602331899358 -112.90319263646914 108.02583987480615 -20.909133744278716 -1.4166455833735490e-05 9.7032814051515343e-07 7.6598902563165899e-07 0.0000000000000000 1.1096735831278880e-07 2.0478723608281084e-07 2.8350007498234444e-06 0.00042716586956249668 1.1175334302600912e-10 -8.0357371560655596e-11 -1.7258962367053586e-10 0.0000000000000000 -36.236867317722961 -112.72601430119678 112.03758904139967 95.996160021407249 0.0000000000000000 0.0000000000000000 0.0000000000000000 0.0000000000000000 3.1493625583447873 3.3040973053778417 1.1547892234419956 1.0738423760098270 588.72205863264423 588.72205845561109 1.0746109615262531 
-33.888834664758441 -105.20943399744374 101.30529468178366 -33.888834664758427 -105.20943399744374 101.30529468178369 -31.260915346379932 -4.5653378752311235e-06 3.2276694908180499e-05 8.2610789947338916e-06 0.0000000000000000 2.4476868893213275e-08 1.1407865392187506e-07 3.0075835195172977e-06 0.00053102076470365499 -1.1953762193281830e-10 -1.1335168750583179e-10 4.1119277590673870e-10 0.0000000000000000 -33.380789828628046 -105.09637623893835 105.63342596379557 85.433794965156210 0.0000000000000000 0.0000000000000000 0.0000000000000000 0.0000000000000000 3.1478776684650898 3.3007643998379828 1.1529311750818894 1.0720740384311744 581.84512676366148 581.84512680419004 1.0737458414129639 
-113.48804170139850 -161.28508005751380 121.23341501845319 -113.48804170139850 -161.28508005751380 121.23341501845317 -166.48774752418191 3.5608214874689259e-06 -1.0740548658607718e-05 -2.1144251162576593e-05 -165.27121675678541 2.9095240661192179e-09 4.7409132175602053e-10 2.2813771103358249e-06 0.00054685595938072434 -7.5398959798694890e-12 2.3126394955340517e-11 2.1652653153618472e-11 0.00054693262865199393 -112.21942232800005 -160.66347960400000 124.66427103520003 147.55923210393107 0.0000000000000000 0.0000000000000000 0.0000000000000000 0.0000000000000000 3.1306095625587536 3.2653393267450208 1.1347675340711663 1.0632098987002394 776.95643456089954 776.94904449392368 1.0652657963220276 
-100.67010132399066 -158.69617888809270 112.79721285298105 -100.67010132399069 -158.69617888809265 112.79721285298103 -178.16698871484672 -1.6505592938677096e-05 -1.6576193862961242e-05 -4.1098646097966752e-05 0.0000000000000000 2.6087688675957565e-09 4.5875625520608315e-10 2.5186159149370724e-06 0.00057316898561410019 9.6660841907677939e-12 3.0588592731365596e-11 -5.9579275205591529e-12 0.0000000000000000 -99.532617471171264 -158.09468895943013 116.58484116745363 117.70414803503969 0.0000000000000000 0.0000000000000000 0.0000000000000000 0.0000000000000000 3.1176553057348895 3.2371815939294071 1.1195207696738232 1.0590998451157794 750.51766704300110 750.52915467658124 1.0580640978588034 
-105.52976378193563 -149.38413399027030 117.29431773168837 -105.52976378193564 -149.38413399027024 117.29431773168837 -154.97651812697885 -1.3659467670253951e-05 -2.1490782956882328e-05 -1.4958420414132406e-05 0.0000000000000000 2.7227883281355503e-09 4.0356284980447294e-10 2.3921505025725764e-06 0.00053705845147367884 -5.1003503133053512e-12 4.4134129295025326e-11 2.5732386878464644e-12 0.0000000000000000 -104.34256255272837 -148.85497981259945 120.89176065121424 119.29379793442074 0.0000000000000000 0.0000000000000000 0.0000000000000000 0.0000000000000000 3.1181194884450609 3.2386755274078398 1.1205672366555701 1.0597370369465673 712.52250491101358 712.51543687866422 1.0585565570618165 
-101.67820709809833 -162.91733448620769 121.13270012071501 -101.67820709809835 -162.91733448620775 121.13270012071506 -165.04328716226883 -7.3902538763673990e-06 -2.5835845853791502e-05 -2.0994488401855192e-05 0.0000000000000000 2.6324252777598645e-09 4.8375092820407417e-10 2.2842093656549878e-06 0.00056053652481717121 -9.5376013591048013e-12 3.3587194033300100e-11 2.5012472991333841e-11 0.0000000000000000 -100.53040969477119 -162.28305471776312 124.56781543385799 141.51484144144280 0.0000000000000000 0.0000000000000000 0.0000000000000000 0.0000000000000000 3.1194073233987187 3.2416847211468718 1.1222945234692394 1.0598188798759234 734.52524435735893 734.52382254593624 1.0593766966743521 
-79.319582307274516 -149.32614168275751 84.462299278640302 -79.319582307274487 -149.32614168275748 84.462299278640316 -199.56109512303144 -4.6573942983250678e-05 -3.4354407495010944e-05 -1.6015001594954798e-05 -200.91432190958042 2.1078060408186157e-09 4.0324377170719572e-10 3.3154366505527828e-06 0.00062584198037638329 2.5465743027493648e-12 4.8299248177891307e-11 1.2587368611425426e-11 0.00064966805118623738 -78.400527573600002 -148.79743798799998 89.448228916799977 108.06316173413846 0.0000000000000000 0.0000000000000000 0.0000000000000000 0.0000000000000000 3.1318884695428868 3.2675925730603077 1.1357370630587000 1.0632098987002376 842.68702151879722 842.69531382258299 1.0657271502925580 
-81.086494637075901 -163.17089372680462 82.713105578030280 -81.086494637075916 -163.17089372680462 82.713105578030294 -279.43329276825210 -2.5611722710207847e-05 -6.2011407561771400e-05 -3.0515807847853721e-05 -281.49913973747294 2.1492669866063352e-09 4.8525616858086096e-10 3.3646266288656079e-06 0.00065636574959333381 7.8194689145330146e-12 5.4746635403579716e-11 3.5200124194115747e-11 0.00065800277154336672 -80.149363288800018 -162.53464431600008 87.773009718400019 109.57810873427631 0.0000000000000000 0.0000000000000000 0.0000000000000000 0.0000000000000000 3.1323778349485631 3.2685127964055449 1.1361653286275943 1.0632098987002372 981.31373681277228 981.29029314879381 1.0659338517563950 
-85.275465746887093 -160.80228347744065 90.231237618939005 -85.275465746887079 -160.80228347744068 90.231237618938991 -240.97896917181427 -1.6159520777216078e-05 -4.1232581465342883e-05 -6.0357075714243074e-05 0.0000000000000000 2.2475598049354062e-09 4.7122938884314181e-10 3.1532053519356396e-06 0.00063860467325739122 -1.9419279440455048e-11 1.1680782670801608e-11 2.8792311787900236e-11 0.0000000000000000 -84.295478612813938 -160.18443337667750 94.973195224810283 106.11323630727971 0.0000000000000000 0.0000000000000000 0.0000000000000000 0.0000000000000000 3.1134320769560486 3.2302292870067033 1.1168252724790753 1.0580198551645155 841.49863334941244 841.45131756763919 1.0567678739204742 
-87.476515932373999 -151.93915060403720 87.789254264965223 -87.476515932373999 -151.93915060403728 87.789254264965180 -224.78031028218990 -1.9715656759563261e-05 -5.3626104231452141e-05 -5.7638925909101966e-05 0.0000000000000000 2.2991958337215124e-09 4.1871361933232260e-10 3.2218776322423537e-06 0.00062341833869156702 -1.2640694525184699e-11 3.6633748027818884e-11 2.0810391603159827e-11 0.0000000000000000 -86.474010682800568 -151.39014911596544 92.634484883397832 94.367740677547317 0.0000000000000000 0.0000000000000000 0.0000000000000000 0.0000000000000000 3.1202264326321711 3.2440264050807546 1.1238308477786194 1.0593453839924816 835.40248296089123 835.42140917786662 1.0601077827810803 
-26.396272815954642 -132.83146856464069 135.83111442832399 -26.396272815954642 -132.83146856464072 135.83111442832393 -71.272084197817890 1.1775996525685984e-05 -1.1043653824251139e-05 4.9536847899772625e-05 -79.199096022907824 8.6604562410386155e-10 3.0550195706524619e-10 1.8708676705614380e-06 0.00047679971381968996 4.4078774303821437e-11 -7.2439377085328864e-12 -3.6974715558190709e-11 0.00045219536380671112 -26.018656529999991 -132.43089511199997 138.64462455200004 49.421240865332216 0.0000000000000000 0.0000000000000000 0.0000000000000000 0.0000000000000000 3.1260968431974514 3.2556918437501992 1.1296233094105386 1.0643810208598705 596.27277715703360 596.27277724271539 1.0628407852683890 
-32.940009708031269 -134.36933286723885 134.74344167104337 -32.940009708031276 -134.36933286723885 134.74344167104343 -63.701984920606307 -4.4753383444543067e-07 9.5186168120751075e-06 1.8755037100743121e-05 -28.058473049520682 1.0195853050731785e-09 3.1462377148017140e-10 1.9014546879247973e-06 0.00051853031984312639 5.1532783925424233e-11 6.9800576067159082e-11 1.1141812839856595e-10 0.00033190293645796507 -32.495446914399992 -133.95681332000001 137.60295016000006 48.530522504776933 0.0000000000000000 0.0000000000000000 0.0000000000000000 0.0000000000000000 3.1370188877293810 3.2786413929477480 1.1416652723109448 1.0681790686116610 622.13075601060507 622.13075552473606 1.0684836762767700 
-28.820622753520531 -136.87072743078448 137.57005533335794 -28.820622753520528 -136.87072743078446 137.57005533335794 -69.903534737806680 1.2368142111195025e-05 1.4515979163012194e-05 1.5157091635865060e-05 -76.071697826885810 9.2292901099355618e-10 3.2943880956537436e-10 1.8219660127272164e-06 0.00050299096786564877 2.8688772742117687e-11 1.3361942445093914e-11 4.7427856172149715e-11 0.00049341569147648770 -28.418203856399998 -136.43877710800004 140.31002455199999 44.353383947079159 0.0000000000000000 0.0000000000000000 0.0000000000000000 0.0000000000000000 3.1275156532228814 3.2585961972254078 1.1311083385704566 1.0652738080735691 599.09865437902249 599.09865450404163 1.0635363928134001 
-27.153731047164825 -129.87937881183504 141.26461019791793 -27.153731047164811 -129.87937881183504 141.26461019791802 -81.340158874291305 8.9572655276762006e-06 1.0816932229168644e-05 6.7000327710925703e-06 0.0000000000000000 8.8381940654969061e-10 2.8801949714107877e-10 1.7180695444096730e-06 0.00047619055620241738 1.0350224524852480e-11 8.3179066392290197e-12 1.3744365203259321e-11 0.0000000000000000 -26.768365491316434 -129.50173712462359 143.84833436668455 49.139845408488213 0.0000000000000000 0.0000000000000000 0.0000000000000000 0.0000000000000000 3.1293941883328587 3.2628044765647584 1.1334456919637252 1.0654135482864648 631.31797373317011 631.31797359813527 1.0646325462020354 
-40.591605311751060 -65.352469130134537 151.81587657321333 -40.591605311751060 -65.352469130134537 151.81587657321330 -140.31986969261513 -3.8615271570907210e-06 -2.8559455310776494e-06 1.5392093685651252e-05 -142.35125360072203 1.1991215798090593e-09 -9.4269592132434354e-11 1.4213519214933965e-06 0.00046934998847109353 -3.1580764212037884e-12 1.2759948154203263e-12 -1.0837473697920808e-11 0.00047039380982686658 -40.068761925200000 -65.476070995999990 153.95338104800004 156.95717166164070 0.0000000000000000 0.0000000000000000 0.0000000000000000 0.0000000000000000 3.1259489868950374 3.2555313211865955 1.1296129710287610 1.0625321925986222 715.54093972998464 715.54093939506254 1.0628332530821551 
-53.077338122226998 -59.486608532876375 146.91922765754632 -53.077338122227012 -59.486608532876396 146.91922765754632 -142.47616377739101 -8.9023431749367579e-06 -1.0503439940708673e-06 8.5823930522177162e-06 -143.77036230235393 1.4920792379413685e-09 -1.2901935075859683e-10 1.5590531159404009e-06 0.00046667264384711013 8.6827277806942463e-12 -2.5039031194492445e-12 -3.7587982859911764e-12 0.00046912227248676388 -52.426757905599978 -59.655776269200025 149.26381449600007 118.05125250056595 0.0000000000000000 0.0000000000000000 0.0000000000000000 0.0000000000000000 3.1276714072503107 3.2591078646078890 1.1314684755662987 1.0625722959574320 725.47186620908474 725.47186605619027 1.0637063812748480 
-35.645155382631010 -65.910503096776765 142.46670424902499 -35.645155382631010 -65.910503096776765 142.46670424902501 -132.67567508443696 4.2585145538441421e-07 -6.2536905898699960e-07 -7.3129327529945299e-07 -132.31948429796100 1.0830567553909987e-09 -9.0961016496748938e-11 1.6842648165038552e-06 0.00046458316181050637 -1.3256306364745253e-12 1.5901518782456266e-12 1.0805986464957147e-12 0.00046377151017554528 -35.172917262399999 -66.029770167599992 144.99959110400002 155.12084301790807 0.0000000000000000 0.0000000000000000 0.0000000000000000 0.0000000000000000 3.1269920122203656 3.2575729736747010 1.1306099737273259 1.0630244462361891 706.32860642601077 706.32860638956549 1.0633015650034974 
-51.042591737444582 -66.475248043388035 139.54711236558433 -51.042591737444582 -66.475248043388078 139.54711236558433 -136.14171145325480 -7.5604178162528833e-06 6.0038012283572919e-06 4.5059086994778729e-06 0.0000000000000000 1.4443352069903881e-09 -8.7612361809874528e-11 1.7663681823876230e-06 0.00046470557221291864 4.5534596612983785e-12 -7.4739239418209653e-12 2.2653529734024868e-12 0.0000000000000000 -50.412828244765279 -66.590128188430739 142.20347059834828 136.07757377940416 0.0000000000000000 0.0000000000000000 0.0000000000000000 0.0000000000000000 3.1218375353402035 3.2467012870495182 1.1248821490591812 1.0612980741330662 693.02467397430530 693.02467530040894 1.0606027525291351 
-95.645800968102748 -159.32311107550203 72.118928079237421 -95.645800968102762 -159.32311107550206 72.118928079237421 -350.41190379779704 -1.4060209834422501e-05 -1.7737244540493632e-05 -2.7328820123103062e-05 -350.19968710778170 2.4908864970640821e-09 4.6244441609388782e-10 3.6625509629573112e-06 0.00066065880388267034 -1.6581186183792254e-11 2.5067547685228037e-11 1.3784126532758548e-11 0.00067259587281867834 -94.559718839999974 -158.71675115199997 77.626866652000004 109.98746742214213 0.0000000000000000 0.0000000000000000 0.0000000000000000 0.0000000000000000 3.1264920246312471 3.2565984123647387 1.1301359441039072 1.0632098987002387 1083.2759361489993 1082.6008041934490 1.0630777592036920 
-90.717805134685747 -159.07080521335703 77.142881380680166 -90.717805134685719 -159.07080521335700 77.142881380680151 -315.03603035773034 -4.3147853394853149e-05 -4.1130915766413548e-05 -5.0509749722860746e-05 -303.20209316789794 2.3752596556292360e-09 4.6096004790996398e-10 3.5212697770958812e-06 0.00065355563527513111 -9.9111029647205802e-12 4.2419550399779982e-11 4.0426581612241194e-11 0.00066729325064648784 -89.682139475999989 -158.46640519600001 82.438353807199988 112.88451412247700 0.0000000000000000 0.0000000000000000 0.0000000000000000 0.0000000000000000 3.1274158193037982 3.2583756851277239 1.1309878301522340 1.0632098987002387 1020.1894929128738 1019.1536908219169 1.0634771703294719 
-103.88019167394052 -155.52086279077960 81.497680800885945 -103.88019167394046 -155.52086279077960 81.497680800885959 -307.60500529951418 -8.7488921860644918e-06 -7.9191935329858322e-06 -6.2475881784083224e-05 0.0000000000000000 2.6840888400769813e-09 4.3992420817318139e-10 3.3988062124734593e-06 0.00063065197433585449 2.5622290071321171e-12 2.4348760406927344e-11 5.2075097159129582e-12 0.0000000000000000 -102.70986659571734 -154.94403864466588 86.608986019839278 111.02505284862640 0.0000000000000000 0.0000000000000000 0.0000000000000000 0.0000000000000000 3.1276931743572471 3.2590812309234845 1.1314181077496597 1.0622816060096578 1016.7014606696901 1016.2040634564302 1.0636863194082629 
-101.55358714028742 -167.84648255639812 78.428993198313805 -101.55358714028746 -167.84648255639814 78.428993198313790 -335.23578203432766 -3.9841324579187766e-06 -1.1633117421821121e-05 -5.9900993187527703e-05 0.0000000000000000 2.6294991739561624e-09 5.1294779535027146e-10 3.4851023702486832e-06 0.00066139499684049930 -6.1081068995624979e-12 2.4998117939148672e-11 1.2147825095585219e-11 0.0000000000000000 -100.40706467681501 -167.17391327890167 83.670075146830683 105.53983917324770 0.0000000000000000 0.0000000000000000 0.0000000000000000 0.0000000000000000 3.1265781985861358 3.2567738960612185 1.1302250709768413 1.0624576558371979 1053.5620889512318 1058.0303570714796 1.0631211253401041 
-115.91753686745935 -99.951010235167047 91.900918097758719 -115.91753686745936 -99.951010235167047 91.900918097758691 -226.04920523324409 -9.6866750282988607e-06 -1.3245109763760280e-05 -4.2432746957595450e-05 -231.06752665665260 2.9665289109850286e-09 1.1070921956957136e-10 3.1062514107560442e-06 0.00051335790755724928 7.3763999861299865e-12 2.2105124338441747e-11 3.4189331764111737e-11 0.00051683579702953308 -114.62406224400000 -99.805851428000011 96.572263865600007 85.211636250682801 0.0000000000000000 0.0000000000000000 0.0000000000000000 0.0000000000000000 3.1278414086019959 3.2593151163109444 1.1314961213299566 1.0601663849564320 870.27732978567280 870.27721344614531 1.0637103326031223 
-112.34448216243648 -91.174626029736871 95.711055868669661 -112.34448216243648 -91.174626029736842 95.711055868669661 -204.44076028852888 -3.8879018590697546e-06 2.7549475307328786e-07 -4.6370918441764446e-05 -202.02391366282447 2.8826959708183608e-09 5.8710147854412753e-11 2.9991045646937660e-06 0.00049520489565474163 1.3136487144793901e-12 4.4890061631223967e-12 2.1067201123891333e-11 0.00049360881082998094 -111.08756211600000 -91.097641973600034 100.22126851279998 99.535403830130534 0.0000000000000000 0.0000000000000000 0.0000000000000000 0.0000000000000000 3.1322914793744632 3.2684854016339959 1.1362282574251135 1.0620750406941144 848.64435738945951 848.64434152401611 1.0659468750364740 
-114.18004707172302 -97.784131430355870 104.23717355097818 -114.18004707172302 -97.784131430355885 104.23717355097823 -172.03939495747304 -5.1200494020261212e-06 -3.8921743491764207e-06 -4.6472721146393203e-05 -172.06608324903360 2.9257581912744964e-09 9.7867269843732174e-11 2.7593372013967610e-06 0.00047334667074185120 6.1414721871581964e-12 2.1512394558336504e-11 2.6096104806023432e-11 0.00047423329724096455 -112.90434805199999 -97.655804887999992 108.38681131359999 128.09762094244454 0.0000000000000000 0.0000000000000000 0.0000000000000000 0.0000000000000000 3.1276665771790011 3.2592237488831604 1.1315908931805814 1.0623366062714246 779.84028843239707 779.84109934487083 1.0637595832897957 
-108.37093447623758 -104.01795202485953 96.054475811243364 -108.37093447623752 -104.01795202485950 96.054475811243307 -199.46757526700847 -4.3666464853108417e-05 -5.3942480241433151e-06 -4.9503818263863727e-05 0.0000000000000000 2.7894523357829826e-09 1.3480294658307909e-10 2.9894470650049243e-06 0.00049889684740336252 5.9386091576288047e-11 8.7591894606843814e-12 1.3844988515639463e-11 0.0000000000000000 -107.15466629968294 -103.84120130723400 100.55016500991876 102.24201981555134 0.0000000000000000 0.0000000000000000 0.0000000000000000 0.0000000000000000 3.1180613752377675 3.2383472735945320 1.1202922196864362 1.0582397903269476 786.57015680466304 786.57007186458088 1.0584288022177659 
-27.290437610646947 -115.62512548566725 98.938392671978647 -27.290437610646940 -115.62512548566734 98.938392671978676 -28.953970721083220 2.1454193470040307e-05 2.7287101467762815e-06 -2.7130878066125204e-05 0.0000000000000000 -2.5761130920762361e-08 1.7119839883967777e-07 3.1371159054786892e-06 0.00068350547383707271 -3.1228738589348320e-12 1.6644403977321148e-10 5.1121056841742129e-10 0.0000000000000000 -26.889884864405381 -115.37486796036181 103.37575244326078 96.382960025775517 0.0000000000000000 0.0000000000000000 0.0000000000000000 0.0000000000000000 3.1444881023431983 3.2939373069527322 1.1494950068892891 1.0716449071012983 575.32181952352266 575.32181960156549 1.0721436565096676 
-110.80955091087917 -103.79680622613780 149.98240684058172 -110.80955091087914 -103.79680622613779 149.98240684058175 -139.61077635164878 1.5186276535826324e-07 4.9085675092369838e-07 3.5315764374036672e-07 -140.30684474129572 2.8466734525167685e-09 1.3349177319099681e-10 1.4729118618106440e-06 0.00046660307815166131 7.8883289377702618e-13 1.9563447403906534e-12 1.2483127039854573e-12 0.00046558786514425647 -109.56833416800004 -103.62177336400003 152.19744990400002 70.302883591683823 0.0000000000000000 0.0000000000000000 0.0000000000000000 0.0000000000000000 3.1248031018203255 3.2529580130209577 1.1281801481781282 1.0622736440226754 710.02725818465103 709.88463694684810 1.0621590541268877 