# For a description of the Tecplot format see the Tecplot User's guide.
#
Variables=x,y,z,s_u,s_v,s_w,s_p,mono_f_vel_u,mono_f_vel_v,mono_f_vel_w,const,u_nu,v_nu,w_nu,p_nu,x_nu,y_nu,z_nu,const,u_ref,v_ref,w_ref,vol_ref,x_ref,y_ref,z_ref,const,I1,I2,I3,J,p1,p2,p3
Zone f=fepoint, n=3174, e=16683, et=brick, c=black
-25.1156 -154.492 109.968 -25.115561202016593 -154.49170834429455 109.96769042571417 -170.87788358171829 -1.2677195606866581e-05 -5.2365875096294837e-05 -5.4114667028794982e-05 -165.95699104940644 1.1610863950850536e-08 7.9343869807679823e-09 8.7475555501370650e-06 0.0043622942461380362 6.3722389227438483e-11 1.4431952919740971e-10 2.3305983073300852e-10 0.0043115866193054585 -24.903554063199991 -154.16086777200002 112.24023381839994 89.724962256112903 0.0000000000000000 0.0000000000000000 0.0000000000000000 0.0000000000000000 3.0746195475149700 3.1501644562303195 1.0755404711494392 1.0382423739966598 446.43500691565691 446.43858142777731 1.0370693598796312 
-37.752480148895920 -155.60295762103925 112.67633603905729 -37.752480148895891 -155.60295762103934 112.67633603905732 -146.88483119489848 4.1931723622141072e-05 -4.5285499948696528e-05 -2.7949224935800339e-05 0.0000000000000000 -3.8471314083247518e-08 2.4755024425996710e-06 8.5816261455606863e-06 0.0044229749780751622 1.2942417527697578e-10 -1.9253199848281771e-10 2.7675130065679139e-10 0.0000000000000000 -37.438273663334591 -155.10473791080037 114.93291110338620 89.036758072416930 0.0000000000000000 0.0000000000000000 0.0000000000000000 0.0000000000000000 3.1032901738034293 3.2095235926741021 1.1062537596749455 1.0490050123960193 463.32335329252663 463.32422946327705 1.0518062111063957 
-31.794367590574250 -148.18140386820980 117.78099126815883 -31.794367590574236 -148.18140386820969 117.78099126815879 -130.54529979151775 1.3651079548823195e-05 -3.2764220991895905e-05 -8.2496538856632229e-06 0.0000000000000000 1.3787326100245245e-08 7.2506529114058074e-09 8.0077975139758450e-06 0.0042968064956271030 2.2783558701089905e-11 1.1569253384601082e-10 -3.9105994100010696e-12 0.0000000000000000 -31.542619574254449 -147.87907313389167 119.86135157363466 98.260374494724786 0.0000000000000000 0.0000000000000000 0.0000000000000000 0.0000000000000000 3.0861659661388177 3.1741668063714585 1.0880071084660239 1.0442983466501259 410.25788492612321 410.25777725458096 1.0430516635963369 
-28.882074788677006 -143.24742067590594 109.84905959408442 -28.882074788676992 -143.24742067590603 109.84905959408437 -129.06023157687000 1.6162020846310137e-05 -4.0692518141207839e-05 -2.7500913766665697e-05 0.0000000000000000 1.2838278398707992e-08 6.7160374483954391e-09 8.7587874268990618e-06 0.0043880165329147095 3.9350505723012589e-10 2.0482185417319458e-10 2.2683532187978911e-10 0.0000000000000000 -28.647655777685479 -142.96738158566356 112.12452093910819 112.69127588814607 0.0000000000000000 0.0000000000000000 0.0000000000000000 0.0000000000000000 3.0906943078077078 3.1836142447477629 1.0929347367340689 1.0445166619048762 413.31186901002718 413.31180927299516 1.0454349474461493 
-24.470026210691984 -200.97300188192042 70.482796560233552 -24.470026210691984 -200.97300188192045 70.482796560233552 -421.95654435993112 1.8971748891718516e-06 9.5761035825754025e-08 1.3421463780179877e-06 -423.85241961648086 1.1400496449653907e-08 1.2970753637819854e-08 1.2485958563956954e-05 0.0052922448807871799 1.1286542950406227e-11 -5.5894207015365601e-12 -5.9608574417607369e-12 0.0052922386948363806 -24.261860196399997 -200.43215969199997 73.726546483199982 142.71380061529433 0.0000000000000000 0.0000000000000000 0.0000000000000000 0.0000000000000000 3.0722643082422398 3.1457202873219741 1.0734615899522539 1.0360348268049169 887.37077149610536 887.37078387865597 1.0360799945144052 
-24.364938473911820 -188.12185867249138 72.106059570141170 -24.364938473911820 -188.12185867249136 72.106059570141170 -415.72868757518444 7.9299156538691075e-06 -1.1060824387186556e-05 -3.4172210765408634e-06 -417.82808177374261 1.1366252175570858e-08 1.1578311476245773e-08 1.2332269123227491e-05 0.0052710309060504069 -2.7533735346012628e-11 5.5517208374977085e-11 3.6462329094317288e-11 0.0052834197907062888 -24.157397762799999 -187.63907770800003 75.309882232799993 165.73632395326644 0.0000000000000000 0.0000000000000000 0.0000000000000000 0.0000000000000000 3.0722680975750563 3.1457199047199000 1.0734573099008549 1.0360348268049180 876.97136345433137 876.97129803815733 1.0360775431607578 
-35.157300738450921 -195.92938415482303 78.551391737769947 -35.157300738450907 -195.92938415482311 78.551391737769933 -412.47041716491776 3.2290137933638120e-06 -8.6405601306359082e-06 -1.7465602797708924e-05 0.0000000000000000 1.4883229079720728e-08 1.2424271889077689e-08 1.1722029427119196e-05 0.0052841025697059323 2.0266180997477327e-12 6.2290282008572312e-11 1.6927558694051033e-11 0.0000000000000000 -34.885542273181727 -195.41132893576267 81.596679120775832 139.46796289390394 0.0000000000000000 0.0000000000000000 0.0000000000000000 0.0000000000000000 3.0716350617133505 3.1444494733378856 1.0728200307684188 1.0353849672089412 870.06236332375283 870.06235796811575 1.0357699444653150 
-18.998208035376802 -195.04375396003439 78.363034611503124 -18.998208035376809 -195.04375396003437 78.363034611503110 -418.81142236412893 3.9877283118471514e-06 -5.4220506802610386e-06 -8.1508879523941910e-06 0.0000000000000000 9.6173620178774383e-09 1.2328318865773014e-08 1.1739862961768209e-05 0.0052658900831012902 -1.4867108803247367e-11 4.8543006842238529e-11 1.4277915109741842e-11 0.0000000000000000 -18.822600960987238 -194.52970000168264 81.412954998504986 111.95285379220412 0.0000000000000000 0.0000000000000000 0.0000000000000000 0.0000000000000000 3.0723934992917497 3.1459768640319123 1.0735889538794157 1.0360348268049160 885.56791405883712 885.56788987535776 1.0361416796257792 
-22.862583326711970 -103.30750062808895 39.226113693711923 -22.862583326711970 -103.30750062808896 39.226113693711916 -413.17595392137639 -1.1888332107494490e-05 1.3587477847037383e-05 -1.8475677388497045e-05 -416.85214140023947 1.0876669107040549e-08 2.3884473288049435e-09 1.5445320127760453e-05 0.0053468756034109211 2.6271431923798212e-11 -1.2651125541880686e-10 1.7561776748471628e-10 0.0053910960200490247 -22.663982073999996 -103.20790935200000 43.238681550399988 69.202643319072678 0.0000000000000000 0.0000000000000000 0.0000000000000000 0.0000000000000000 3.0721225013840114 3.1454308750338487 1.0733139452474625 1.0360348268049180 872.86748148204629 872.86748150007395 1.0360088961716096 
-30.395082541954825 -110.90703276459932 43.070754432914377 -30.395082541954825 -110.90703276459932 43.070754432914377 -403.14381842882312 1.0661851847449215e-06 2.1563739770620386e-05 -2.5081312945386730e-05 -399.61507502103274 1.3331332690547093e-08 3.2118748216625188e-09 1.5081312149334279e-05 0.0052764885605926315 8.4114035756463834e-11 -1.7416067805416292e-10 1.9744076468618765e-10 0.0052937900285384204 -30.151660686400003 -110.77310694400001 46.988755992800002 74.715282964229786 0.0000000000000000 0.0000000000000000 0.0000000000000000 0.0000000000000000 3.0724799201237580 3.1461505975749469 1.0736762581883708 1.0360348268049182 853.78260065346501 853.78260065156849 1.0361841863954084 
-18.910233916306979 -103.66826954332194 46.166565132183813 -18.910233916306982 -103.66826954332193 46.166565132183798 -395.71784450132219 -1.4437862374235399e-05 1.1088697091783776e-05 -2.6750019572628196e-05 -396.36678890381467 9.5886934364797227e-09 2.4275454979516553e-09 1.4788202885362979e-05 0.0052260366244634149 5.6763387413328798e-11 -1.4599030699839724e-10 1.8224717000464139e-10 0.0052356449773827357 -18.735150314000002 -103.56704831999998 50.008419303199993 79.719497061372692 0.0000000000000000 0.0000000000000000 0.0000000000000000 0.0000000000000000 3.0721509912809171 3.1454876278148016 1.0733422027068207 1.0360348268049180 841.67006470330500 841.67006465373140 1.0360222930353122 
-25.707408035039172 -98.565757352753707 47.164940748526092 -25.707408035039176 -98.565757352753721 47.164940748526085 -401.12706431092516 3.8081846042388019e-07 5.1919835015583724e-06 -4.1324017976808010e-05 0.0000000000000000 1.1803730534665213e-08 1.8746648677847588e-09 1.4693677361066195e-05 0.0052812193052569822 3.3613220689792684e-11 -8.9088097971156716e-11 1.9015962196900771e-10 0.0000000000000000 -25.491879232152165 -98.487589184379729 50.982237960580505 72.292163684038698 0.0000000000000000 0.0000000000000000 0.0000000000000000 0.0000000000000000 3.0720880184612707 3.1453662618448792 1.0732838669333413 1.0360348268049173 850.05037127701894 850.05037124035505 1.0359938213017730 
-25.554464228191357 -104.28864413481230 106.37757628852549 -25.554464228191360 -104.28864413481232 106.37757628852555 -127.26308647223486 1.2999208488325861e-05 4.3809702471809150e-05 -7.7045986118631232e-06 0.0000000000000000 2.9775922199287261e-07 -9.2992364554603512e-07 1.0029973335645908e-05 0.0040918259932355800 -3.4129797047052148e-10 -2.6136838895115407e-10 1.0934290870566530e-09 0.0000000000000000 -25.283559732051039 -104.23282252886388 108.75695162467670 96.378087069502698 0.0000000000000000 0.0000000000000000 0.0000000000000000 0.0000000000000000 3.0866275416974109 3.1748469467890028 1.0882164866823343 1.0455786417690625 396.27855474287202 396.27850758318334 1.0431500015042159 
-26.198175841519781 -118.12613234851734 108.31735008114831 -26.198175841519770 -118.12613234851734 108.31735008114823 -96.933905945983653 2.0792776531079974e-05 4.2368961530287677e-06 -1.6738757839866512e-05 0.0000000000000000 2.1313202901533802e-07 -3.1762814991964667e-07 1.0145008353256811e-05 0.0040986055256307394 -4.4674233183119650e-10 4.1704684139378347e-10 8.7120244496775142e-10 0.0000000000000000 -25.913646985361510 -118.01095136745833 110.66456878241424 88.846747377876298 0.0000000000000000 0.0000000000000000 0.0000000000000000 0.0000000000000000 3.1162168125823935 3.2358198030908953 1.1196249393199915 1.0540997890409711 401.25016284076258 401.25050751829860 1.0581505486804899 
-36.666670756035202 -112.71113033886307 109.74767475221414 -36.666670756035195 -112.71113033886299 109.74767475221414 -99.101342808909337 -1.2812488062511764e-05 2.7144775859785075e-05 1.7411778561243670e-05 0.0000000000000000 1.2972370260212128e-06 -1.4386723000422856e-06 1.0241475683035324e-05 0.0039354247591952057 2.7978614591786506e-10 -1.3719591250823470e-10 -2.5813824542262952e-10 0.0000000000000000 -36.236867317722961 -112.72601430119678 112.03758904139967 95.996160021407249 0.0000000000000000 0.0000000000000000 0.0000000000000000 0.0000000000000000 3.1194698850144538 3.2425719924991809 1.1231302499365416 1.0572480513675779 411.91902386563430 411.91989405216020 1.0597824320797891 
-33.743289843246465 -105.05008160579216 103.10984097863802 -33.743289843246451 -105.05008160579213 103.10984097863806 -125.70095882493980 9.3320667894345536e-07 5.0168044742626872e-05 -1.2021424867214297e-05 0.0000000000000000 1.1315011386676900e-06 -2.0334922811218562e-06 1.2057875864947411e-05 0.0041795853454455779 -2.5941870800849894e-10 -3.2028876190836967e-10 7.3882569364709759e-10 0.0000000000000000 -33.380789828628046 -105.09637623893835 105.63342596379557 85.433794965156210 0.0000000000000000 0.0000000000000000 0.0000000000000000 0.0000000000000000 3.1058225454672472 3.2141083492872342 1.1082923920963301 1.0504568340782310 419.76247668906939 419.76247699138014 1.0527501429089812 
-112.95409477551379 -161.02383219004756 122.70502680736401 -112.95409477551379 -161.02383219004759 122.70502680736401 -272.00623382807493 2.0072017751643843e-06 -6.3345742123726627e-06 -1.6360996202715571e-05 -271.17846594503811 4.0235354034634518e-08 8.6421746980924735e-09 7.5415931624078789e-06 0.0044540472785391796 -1.5548671781312329e-11 4.6790171349345343e-11 1.0477389120157904e-10 0.0044516931244204605 -112.21942232800005 -160.66347960400000 124.66427103520003 147.55923210393107 0.0000000000000000 0.0000000000000000 0.0000000000000000 0.0000000000000000 3.0780393939257205 3.1576884065995832 1.0796583910831470 1.0360348268049180 638.11137864126147 638.11425735697946 1.0390915254278961 
-100.19134779145601 -158.44338312470927 114.42185651403317 -100.19134779145601 -158.44338312470927 114.42185651403317 -279.27542749682664 -1.4775159848768301e-05 -1.0952656076508707e-05 -3.1546653735357351e-05 0.0000000000000000 3.6076268514206866e-08 8.3625801283737644e-09 8.3258381202711007e-06 0.0045131364352239472 8.5983729650707429e-11 1.2655446701809606e-11 -1.2027647889456855e-11 0.0000000000000000 -99.532617471171264 -158.09468895943013 116.58484116745363 117.70414803503969 0.0000000000000000 0.0000000000000000 0.0000000000000000 0.0000000000000000 3.0578803839542323 3.1153786003894042 1.0574850696064244 1.0297669187733554 608.87009186048965 608.87050940394124 1.0283197237055968 
-105.03008479229224 -149.16173968586475 118.83738435543086 -105.03008479229221 -149.16173968586466 118.83738435543090 -264.98292326726789 -1.2767627492161359e-05 -1.2212024522936791e-05 -1.4638944498039452e-05 0.0000000000000000 3.7653106285673310e-08 7.3568852676508803e-09 7.9077789232329110e-06 0.0044441495942868347 1.9255567667567709e-11 8.8627953494972894e-11 1.5452096640492143e-11 0.0000000000000000 -104.34256255272837 -148.85497981259945 120.89176065121424 119.29379793442074 0.0000000000000000 0.0000000000000000 0.0000000000000000 0.0000000000000000 3.0588233684067911 3.1178268944529033 1.0590014152564076 1.0302532524865613 586.39414439573238 586.39877458967396 1.0290510456474624 
-101.19511271384410 -162.65075772303706 122.60613886790055 -101.19511271384410 -162.65075772303712 122.60613886790051 -268.87805599565235 -8.3418799087965143e-06 -1.7009211017392957e-05 -1.4836067690249883e-05 0.0000000000000000 3.6403377187688151e-08 8.8184416990877423e-09 7.5509558046249481e-06 0.0044518380876421189 1.5565679630663671e-11 7.5047174087319059e-11 7.1288389652108703e-11 0.0000000000000000 -100.53040969477119 -162.28305471776312 124.56781543385799 141.51484144144280 0.0000000000000000 0.0000000000000000 0.0000000000000000 0.0000000000000000 3.0604506299910859 3.1214174454359509 1.0609660048974014 1.0307082383246517 596.12093774303821 596.12259613226911 1.0300135497654426 
-78.932763013753330 -149.10393670849129 86.600935466921115 -78.932763013753316 -149.10393670849132 86.600935466921115 -286.32361535393551 -3.7041945896528658e-05 -2.6056277481979931e-05 -1.2580332616402703e-05 -286.45345847195540 2.9148612065710289e-08 7.3506138398293777e-09 1.0959904078511329e-05 0.0047678848498750167 1.7766244945105422e-10 2.3580119706205942e-10 1.1053841482503970e-10 0.0048202788509527578 -78.400527573600002 -148.79743798799998 89.448228916799977 108.06316173413846 0.0000000000000000 0.0000000000000000 0.0000000000000000 0.0000000000000000 3.0771218995406282 3.1556182091047336 1.0785044267324007 1.0360348268049169 662.28340540256625 662.75667876676027 1.0385294924873421 
-80.692067109754106 -162.90348915718158 84.883471966879029 -80.692067109754120 -162.90348915718158 84.883471966879000 -344.32798044846385 -2.1665884528538549e-05 -4.2433451648557345e-05 -2.3224417960204170e-05 -346.23574620485732 2.9721915803526674e-08 8.8458437796923323e-09 1.1122512360906001e-05 0.0050010613597892698 -5.7193028611432543e-11 3.1109071902180165e-10 1.4366232015259874e-10 0.0050662403993040799 -80.149363288800018 -162.53464431600008 87.773009718400019 109.57810873427631 0.0000000000000000 0.0000000000000000 0.0000000000000000 0.0000000000000000 3.0778450312533865 3.1569889804490714 1.0791502063081870 1.0360348268049180 765.07390794390619 765.51511746813765 1.0388480674247593 
-84.863000724976587 -160.54261181805600 92.265225836821855 -84.863000724976658 -160.54261181805586 92.265225836821813 -317.96708569787495 -1.5830478134429174e-05 -2.9320034068942861e-05 -4.3376141979819767e-05 0.0000000000000000 3.1081135429267270e-08 8.5900259683135971e-09 1.0423612906151904e-05 0.0048976185141455797 1.2000387847915109e-10 1.2348317682888375e-10 1.7233268692412685e-10 0.0000000000000000 -84.295478612813938 -160.18443337667750 94.973195224810283 106.11323630727971 0.0000000000000000 0.0000000000000000 0.0000000000000000 0.0000000000000000 3.0585366211966369 3.1179258573509352 1.0593916929215472 1.0305322514228858 675.32915079508280 675.18002105237736 1.0292325911916513 
-87.054573301339573 -151.70841482000785 89.867539819145435 -87.054573301339573 -151.70841482000785 89.867539819145406 -307.44523446791180 -1.7855297174905002e-05 -3.8020149934645915e-05 -4.1921237561154776e-05 0.0000000000000000 3.1795311591920061e-08 7.6328125486746501e-09 1.0650624187924507e-05 0.0048334964754829270 9.4583763184593592e-11 1.8408961029714683e-10 9.4383730246445302e-11 0.0000000000000000 -86.474010682800568 -151.39014911596544 92.634484883397832 94.367740677547317 0.0000000000000000 0.0000000000000000 0.0000000000000000 0.0000000000000000 3.0656539282858279 3.1323855366248048 1.0667372429748356 1.0317910586432253 669.16447062122245 669.06381587606495 1.0328291689291367 
-26.237338576672659 -132.66311450428825 137.03792539503647 -26.237338576672659 -132.66311450428822 137.03792539503644 -169.36174254940491 1.3485274310208211e-05 -1.1634342447768121e-05 5.2946240568769655e-05 -177.99382175030226 1.1976423977544393e-08 5.5692153666520028e-09 6.1845640324520446e-06 0.0040419025738131767 6.7867768049980538e-11 -1.7797316786649671e-11 -1.1036734263560550e-10 0.0039717085066505028 -26.018656529999991 -132.43089511199997 138.64462455200004 49.421240865332216 0.0000000000000000 0.0000000000000000 0.0000000000000000 0.0000000000000000 3.0714067642601486 3.1439378965328659 1.0725371892864928 1.0385200564156787 445.64895182191475 445.64894265025606 1.0356479097858224 
-32.752898473566802 -134.19595807094476 135.96998291389895 -32.752898473566802 -134.19595807094478 135.96998291389897 -162.31932785850987 -1.5873724077284217e-06 8.4120680214228179e-06 3.0771954842474470e-05 -138.61645415410797 1.4099690512359153e-08 5.7352914084596315e-09 6.2856761084972845e-06 0.0040931564384317732 1.0898254977031430e-10 9.6763374717415483e-11 1.4426709972633995e-10 0.0042985720108219124 -32.495446914399992 -133.95681332000001 137.60295016000006 48.530522504776933 0.0000000000000000 0.0000000000000000 0.0000000000000000 0.0000000000000000 3.0904639610858675 3.1829759860931262 1.0925237894684940 1.0451923097736355 473.13132748692607 473.13132857814037 1.0452110274711688 
-28.651249387843635 -136.68918621722699 138.74532208419927 -28.651249387843624 -136.68918621722699 138.74532208419924 -170.73220494982726 1.6320520452268914e-05 9.9601226330644744e-06 1.6656021978329029e-05 -178.81123435867630 1.2763060622256184e-08 6.0054434203316021e-09 6.0229088605368020e-06 0.0040668049625715496 8.2149897413857945e-11 -8.9674582568035222e-11 5.2242453176345012e-11 0.0040081418310023839 -28.418203856399998 -136.43877710800004 140.31002455199999 44.353383947079159 0.0000000000000000 0.0000000000000000 0.0000000000000000 0.0000000000000000 3.0754384352581097 3.1520693571242053 1.0766354802084186 1.0405019398474042 457.78653936106440 457.78653542204023 1.0376020484469373 
-26.991535231617821 -129.72066257394843 142.37285808925796 -26.991535231617828 -129.72066257394849 142.37285808925796 -181.47301330348466 6.3294255397641494e-06 7.8504692518414070e-06 1.0491050935321727e-05 0.0000000000000000 1.2222197295908011e-08 5.2503915104473728e-09 5.6794562048878561e-06 0.0040440911164329567 2.6542980248179456e-11 -1.1347251112384656e-11 8.1516885998219887e-11 0.0000000000000000 -26.768365491316434 -129.50173712462359 143.84833436668455 49.139845408488213 0.0000000000000000 0.0000000000000000 0.0000000000000000 0.0000000000000000 3.0771555278413114 3.1558653608122085 1.0787180373471867 1.0406272455319960 483.39168744833728 483.39168906689321 1.0386060546548659 
-40.371546699355591 -65.404416846211106 152.73272553702628 -40.371546699355584 -65.404416846211106 152.73272553702628 -250.34573310447229 -6.2917058647009303e-06 -2.8787057503884738e-07 1.0691526960489242e-05 -252.20575711134418 1.6582427056488488e-08 -1.7184540457293449e-09 4.6985909749608368e-06 0.0042004109354998190 4.4655525758774992e-11 -3.0790406471397196e-11 -2.4069483918348097e-11 0.0042104356812674845 -40.068761925200000 -65.476070995999990 153.95338104800004 156.95717166164070 0.0000000000000000 0.0000000000000000 0.0000000000000000 0.0000000000000000 3.0703305114186259 3.1418449518773266 1.0715209158024666 1.0349520628398698 584.67169572315402 584.67164877499295 1.0351442994971747 
-52.803516585213259 -59.557706792391485 147.92490134794656 -52.803516585213281 -59.557706792391507 147.92490134794659 -253.89939030158209 -6.6136728552451349e-06 -1.6415834403060922e-06 8.2999916176456429e-06 -254.78655013556195 2.0633703953776283e-08 -2.3519505232272309e-09 5.1537925065403556e-06 0.0042333943188766227 4.2086863315594082e-11 -1.4014960153212546e-11 -1.5357166671658629e-11 0.0042378682708363504 -52.426757905599978 -59.655776269200025 149.26381449600007 118.05125250056595 0.0000000000000000 0.0000000000000000 0.0000000000000000 0.0000000000000000 3.0738294467055569 3.1489873227137655 1.0751648985877846 1.0351287304825989 598.20174526005746 598.20176906422864 1.0369050115530263 
-35.446395929740554 -65.960628973833934 143.55314627327903 -35.446395929740554 -65.960628973833963 143.55314627327903 -243.72685702315357 -1.9072218584531214e-06 1.0978821603787472e-06 6.3371447909183391e-07 -243.58643981733289 1.4977437831631413e-08 -1.6581763739864643e-09 5.5677073289572832e-06 0.0041885355375423268 2.1882108482650154e-11 -2.6667457963942686e-11 4.2033783600804843e-11 0.0041786327851620212 -35.172917262399999 -66.029770167599992 144.99959110400002 155.12084301790807 0.0000000000000000 0.0000000000000000 0.0000000000000000 0.0000000000000000 3.0730341350271195 3.1472385534141689 1.0742099688447166 1.0358865707904730 579.44908108219545 579.44908456059136 1.0364415626678798 
-50.777531713924908 -66.523530171782497 140.68651549757948 -50.777531713924894 -66.523530171782511 140.68651549757945 -248.16132536665282 -6.6553584240128857e-06 3.6156369766934892e-06 5.1007509610612827e-06 0.0000000000000000 1.9973486128921358e-08 -1.5971954869797855e-09 5.8391179988959152e-06 0.0042219780901527780 5.2758197748611004e-11 -4.2273522571978569e-11 3.2111254287200895e-11 0.0000000000000000 -50.412828244765279 -66.590128188430739 142.20347059834828 136.07757377940416 0.0000000000000000 0.0000000000000000 0.0000000000000000 0.0000000000000000 3.0649161811957417 3.1304897277337189 1.0655727526509009 1.0330996560130872 569.66203629777249 569.66203564956061 1.0322605576669945 
-95.188681815014888 -159.06826853792597 74.481471799145524 -95.188681815014888 -159.06826853792603 74.481471799145524 -399.14930523148871 -9.0837171973907003e-06 -1.2496485370585021e-05 -1.8041629896494900e-05 -399.16902928666246 3.4446027238899113e-08 8.4302688718729274e-09 1.2107366701208377e-05 0.0050872164131497760 -1.6817202100789315e-11 6.3882969154986716e-11 9.0729034314513654e-11 0.0051240371105678801 -94.559718839999974 -158.71675115199997 77.626866652000004 109.98746742214213 0.0000000000000000 0.0000000000000000 0.0000000000000000 0.0000000000000000 3.0718525388520659 3.1448856098131941 1.0730386654055852 1.0360348268049173 847.44335785959822 847.44481333079409 1.0358748623564407 
-90.281905678714011 -158.81678639027140 79.414291085045477 -90.281905678714040 -158.81678639027137 79.414291085045505 -373.66195779434486 -3.2517984908493609e-05 -2.8932467555479756e-05 -3.6979770058091172e-05 -365.02926709684021 3.2847016093184855e-08 8.4030143399083101e-09 1.1640330700224411e-05 0.0050300548804239845 2.3050900151211117e-11 1.4425685528347831e-10 2.0646730218821569e-10 0.0050583100887949106 -89.682139475999989 -158.46640519600001 82.438353807199988 112.88451412247700 0.0000000000000000 0.0000000000000000 0.0000000000000000 0.0000000000000000 3.0726358066757107 3.1464106346637499 1.0737799147743876 1.0360348268049184 801.32552680226024 801.31501690785683 1.0362299723044919 
-103.38761565712545 -155.27843362712090 83.690094874871335 -103.38761565712547 -155.27843362712096 83.690094874871335 -370.02113209905241 -7.4057229465720531e-06 -6.7286827177159643e-06 -4.2344865584532300e-05 0.0000000000000000 3.7117856441226671e-08 8.0196345675354053e-09 1.1235500493533836e-05 0.0049847785329676956 4.9587830047085694e-11 4.0822954191189441e-11 6.6605373865855831e-11 0.0000000000000000 -102.70986659571734 -154.94403864466588 86.608986019839278 111.02505284862640 0.0000000000000000 0.0000000000000000 0.0000000000000000 0.0000000000000000 3.0734774260216819 3.1481989521061942 1.0747272757482120 1.0350992712703233 802.68427429942312 802.68048289741603 1.0366977695211290 
-101.07102936317506 -167.56381337802802 80.677072961625655 -101.07102936317506 -167.56381337802796 80.677072961625683 -389.50473715989290 -4.3245267422993894e-06 -8.5210187083626520e-06 -4.0437701088068899e-05 0.0000000000000000 3.6362933650280205e-08 9.3507906417933384e-09 1.1520771366235747e-05 0.0050685544904992786 2.1789280202647682e-12 7.7806078328910378e-11 2.8522990709532581e-11 0.0000000000000000 -100.40706467681501 -167.17391327890167 83.670075146830683 105.53983917324770 0.0000000000000000 0.0000000000000000 0.0000000000000000 0.0000000000000000 3.0720667166823472 3.1453232933803954 1.0732621868992387 1.0352809496199138 829.05820764834050 829.05957687536159 1.0359846427375106 
-115.37312866008993 -99.890002511311693 93.904618477045503 -115.37312866008990 -99.890002511311664 93.904618477045474 -316.25730985572329 -7.0212710790110570e-06 -9.6453140245173438e-06 -3.0194736961367141e-05 -319.81261568143873 4.1023652571556179e-08 2.0181594728718721e-09 1.0268396319013107e-05 0.0048233830884705786 4.2590665823118155e-11 1.1399123374070000e-10 1.6958538004031283e-10 0.0048315694038077043 -114.62406224400000 -99.805851428000011 96.572263865600007 85.211636250682801 0.0000000000000000 0.0000000000000000 0.0000000000000000 0.0000000000000000 3.0737777554252257 3.1485689081067170 1.0747897980858863 1.0325147777916148 706.19184566524905 706.17637708974132 1.0367120097092093 
-111.81545934523029 -91.142270968891978 97.645640725976051 -111.81545934523025 -91.142270968892007 97.645640725976051 -300.70979831161065 -3.1736575099514646e-06 -4.5142048579069664e-07 -3.3090230669614164e-05 -298.55208259659599 3.9864291520586015e-08 1.0703152808488878e-09 9.9141988707529549e-06 0.0047382079072165332 5.5050789543717384e-13 -2.1669537250692829e-11 2.1473516063841169e-10 0.0046927299853251475 -111.08756211600000 -91.097641973600034 100.22126851279998 99.535403830130534 0.0000000000000000 0.0000000000000000 0.0000000000000000 0.0000000000000000 3.0793805919092203 3.1602793926168227 1.0809084399348701 1.0347698435567900 690.14199044257668 690.13911171484131 1.0396853334193743 
-113.64312040623274 -97.730198014863205 106.01709547756904 -113.64312040623275 -97.730198014863177 106.01709547756901 -279.51917352848818 -3.0079668012434059e-06 -1.9049115401441039e-06 -2.8840601073864101e-05 -279.13365572646751 4.0459878655751964e-08 1.7841371158233697e-09 9.1215952018330881e-06 0.0046074921137347598 1.7478923097967251e-11 3.7426818001477104e-11 1.7667123531021689e-10 0.0046042371625536292 -112.90434805199999 -97.655804887999992 108.38681131359999 128.09762094244454 0.0000000000000000 0.0000000000000000 0.0000000000000000 0.0000000000000000 3.0736173963702309 3.1486458504170209 1.0750358405869138 1.0347202131378097 643.92934504940263 644.00075439492798 1.0368401646926313 
-107.85902155141521 -103.94366677009216 97.982831064788272 -107.85902155141517 -103.94366677009215 97.982831064788243 -297.05030884381932 -3.2580634773922136e-05 -3.1116401693172201e-06 -3.5301427993500598e-05 0.0000000000000000 3.8574984859152117e-08 2.4573863499632860e-09 9.8822739209580862e-06 0.0047403337241956577 2.4802387222536153e-10 4.0172275570492526e-11 6.7480993639925334e-11 0.0000000000000000 -107.15466629968294 -103.84120130723400 100.55016500991876 102.24201981555134 0.0000000000000000 0.0000000000000000 0.0000000000000000 0.0000000000000000 3.0602832426589823 3.1205657721340239 1.0602755688325838 1.0295515073478247 642.79405308263438 642.78153094091647 1.0296775966627048 
-27.153169695374473 -115.47263015190133 100.77793996181028 -27.153169695374462 -115.47263015190130 100.77793996181028 -113.52541093831094 2.7544962543732229e-05 1.4241550395760670e-05 -4.0438083252259512e-05 0.0000000000000000 3.6893317781610433e-09 -5.7939147546292448e-07 1.1845371749957553e-05 0.0044454198862906363 -1.1008269506463286e-11 3.3095848782447674e-10 8.8375771412478120e-10 0.0000000000000000 -26.889884864405381 -115.37486796036181 103.37575244326078 96.382960025775517 0.0000000000000000 0.0000000000000000 0.0000000000000000 0.0000000000000000 3.1015469708514734 3.2056784465851011 1.1041445107373109 1.0507568415415482 400.13653349137331 400.13640126554668 1.0507777172439257 
-110.28713742885775 -103.72324295617634 150.93251476384057 -110.28713742885772 -103.72324295617635 150.93251476384057 -258.51653753325473 7.7012464401329564e-07 2.5588717434792062e-06 2.7861570912424215e-07 -259.55227749702874 3.9366250356720485e-08 2.4335035098133062e-09 4.8690337086654267e-06 0.0042915714254733372 -8.5804971997301667e-12 -3.2157288299946909e-11 2.7901798872573167e-12 0.0042889282699251075 -109.56833416800004 -103.62177336400003 152.19744990400002 70.302883591683823 0.0000000000000000 0.0000000000000000 0.0000000000000000 0.0000000000000000 3.0692326035271358 3.1394152390453902 1.0701859048987166 1.0345450338127509 596.90312283400613 596.99394712536389 1.0345006442641709 