# For a description of the Tecplot format see the Tecplot User's guide.
#
Variables=x,y,z,s_u,s_v,s_w,s_p,mono_f_vel_u,mono_f_vel_v,mono_f_vel_w,const,u_nu,v_nu,w_nu,p_nu,x_nu,y_nu,z_nu,const,u_ref,v_ref,w_ref,vol_ref,x_ref,y_ref,z_ref,const,I1,I2,I3,J,p1,p2,p3
Zone f=fepoint, n=3174, e=16683, et=brick, c=black
-25.0601 -154.405 110.570 -25.060118984802383 -154.40528183148260 110.57033382696521 -148.00476503454917 -9.7290026565970132e-06 -4.0888467067070457e-05 -4.1318236426699229e-05 -144.58043153832153 9.2299778930993170e-12 4.7770676303571236e-12 2.8678728725139990e-08 -0.0012946539367478744 1.0142921205446704e-11 4.5719987118456268e-11 -1.5814170458658397e-11 -0.0012869580440524266 -24.903554063199991 -154.16086777200002 112.24023381839994 89.724962256112903 0.0000000000000000 0.0000000000000000 0.0000000000000000 0.0000000000000000 3.0547302390436872 3.1099500273088130 1.0552177224100110 1.0282145298441254 367.28785607380655 367.28991246025748 1.0272312796987499 
-37.673039873706841 -155.47738275272243 113.27533573835123 -37.673039873706820 -155.47738275272243 113.27533573835125 -129.27691554736609 3.2699996711729928e-05 -3.6594494411166022e-05 -2.1666732835403203e-05 0.0000000000000000 1.0567835909335507e-08 4.3164187330942289e-08 -8.3191593643625807e-08 -0.0013369910781640929 -1.0630111738178939e-10 1.1081760896623170e-10 -6.3784571416229847e-11 0.0000000000000000 -37.438273663334591 -155.10473791080037 114.93291110338620 89.036758072416930 0.0000000000000000 0.0000000000000000 0.0000000000000000 0.0000000000000000 3.0771387210814685 3.1559245294502269 1.0787942856680282 1.0365640886720717 380.91599432445935 380.90996786103841 1.0386620969665252 
-31.728532693306356 -148.10242506914119 118.33267068354627 -31.728532693306338 -148.10242506914116 118.33267068354631 -116.54400160572592 1.0905810977506357e-05 -2.6780600294529015e-05 -5.2985013065747716e-06 0.0000000000000000 1.0958400853411376e-11 4.3738346278132667e-12 2.6253440754686608e-08 -0.0013103624882356377 -2.8227691797216593e-11 1.6331283593947718e-11 5.5704297564223044e-13 0.0000000000000000 -31.542619574254449 -147.87907313389167 119.86135157363466 98.260374494724786 0.0000000000000000 0.0000000000000000 0.0000000000000000 0.0000000000000000 3.0639777539982296 3.1289718092323251 1.0649965239228498 1.0329703879331098 339.56100805595457 339.56236531173147 1.0319720617596639 
-28.820771618420178 -143.17426519242693 110.45247679121864 -28.820771618420171 -143.17426519242693 110.45247679121860 -114.92719024312854 1.3431559606571154e-05 -3.2274116888502705e-05 -2.2533104789497459e-05 0.0000000000000000 1.0204753708720204e-11 4.0621395136497540e-12 2.8715559707848115e-08 -0.0013349827815446660 -1.4703618938375680e-10 1.1502258334043670e-11 -3.6341139919503894e-11 0.0000000000000000 -28.647655777685479 -142.96738158566356 112.12452093910819 112.69127588814607 0.0000000000000000 0.0000000000000000 0.0000000000000000 0.0000000000000000 3.0674927754355541 3.1362314133067870 1.0687448737656700 1.0331384702544708 341.22026118200557 341.20529562273447 1.0338007299879657 
-24.415588490125515 -200.83171599267109 71.342988930014386 -24.415588490125515 -200.83171599267109 71.342988930014386 -337.06585900785751 1.2568147802563452e-06 3.8175522509418588e-08 9.5362734370951635e-07 -338.45635937945877 9.0616264492027215e-12 7.8399509106930054e-12 4.0935030476418894e-08 -0.0012750187834486100 -3.9220767779691598e-13 2.6049278844426200e-15 -1.2990632260341111e-13 -0.0012749456637354279 -24.261860196399997 -200.43215969199997 73.726546483199982 142.71380061529433 0.0000000000000000 0.0000000000000000 0.0000000000000000 0.0000000000000000 3.0530455385828086 3.1067356901882657 1.0536923903899924 1.0264625243530106 699.37473495196491 699.36192349623639 1.0264952417437059 
-24.310664277059374 -187.99574029794141 72.955663847288946 -24.310664277059374 -187.99574029794141 72.955663847288960 -332.41493526046901 5.7696450628485313e-06 -8.1945276671885433e-06 -2.5325179085779340e-06 -333.92849930073061 9.0344398628872113e-12 6.9793060220035857e-12 4.0431161529852495e-08 -0.0012751766862823116 -7.5891651855799855e-13 3.1556861313353754e-13 6.5329947643780134e-14 -0.0012751030842044074 -24.157397762799999 -187.63907770800003 75.309882232799993 165.73632395326644 0.0000000000000000 0.0000000000000000 0.0000000000000000 0.0000000000000000 3.0530485382197989 3.1067374267215002 1.0536910841618421 1.0264625243530099 691.60933255844077 691.75583703739278 1.0264943940349698 
-35.086232886937239 -195.79405097692140 79.358954907823446 -35.086232886937267 -195.79405097692140 79.358954907823446 -330.12001767489699 2.1925222495780461e-06 -6.4232967146723397e-06 -1.3002328631085957e-05 0.0000000000000000 1.1832729240879303e-11 7.5057737802808333e-12 3.8430501447805909e-08 -0.0012756159184927869 -4.2267212103666458e-13 4.2822895638600970e-13 5.1951517848019303e-13 0.0000000000000000 -34.885542273181727 -195.41132893576267 81.596679120775832 139.46796289390394 0.0000000000000000 0.0000000000000000 0.0000000000000000 0.0000000000000000 3.0525885256304579 3.1058152152786218 1.0532289325825086 1.0259848914438283 686.71072743124716 686.36756779630343 1.0262692473548800 
-18.952284838558967 -194.90946604392610 79.171826382645193 -18.952284838558967 -194.90946604392602 79.171826382645165 -334.65386081921849 2.8886069838239909e-06 -4.0094926068184489e-06 -6.0536557970346087e-06 0.0000000000000000 7.6455786146567545e-12 7.4296124807915492e-12 3.8488969344996342e-08 -0.0012746822548504566 -6.1656858896603744e-13 2.3071727586381571e-13 -2.4075301980021326e-13 0.0000000000000000 -18.822600960987238 -194.52970000168264 81.412954998504986 111.95285379220412 0.0000000000000000 0.0000000000000000 0.0000000000000000 0.0000000000000000 3.0531407474945138 3.1069251635117330 1.0537866461186736 1.0264625243530103 697.92700723814778 698.03936159052716 1.0265412752340142 
-22.810646897338245 -103.28148408894695 40.290184702735466 -22.810646897338245 -103.28148408894695 40.290184702735466 -333.80258849760099 -9.0221448622269073e-06 1.0299473208131946e-05 -1.3973871120174670e-05 -336.53136638562688 8.6446128033657049e-12 1.4414025528708407e-12 5.0637249948692897e-08 -0.0012565077454094460 -2.6954260456312247e-12 3.3979479859205040e-12 -4.4261719686242815e-12 -0.0012569709692825135 -22.663982073999996 -103.20790935200000 43.238681550399988 69.202643319072678 0.0000000000000000 0.0000000000000000 0.0000000000000000 0.0000000000000000 3.0529414960034629 3.1065244926713715 1.0535852198573357 1.0264625243530103 694.28753708508043 711.30726904738754 1.0264431258817439 
-30.331425028034811 -110.87204690549021 44.109747920895998 -30.331425028034804 -110.87204690549017 44.109747920895991 -326.19892609673695 7.4609094375689500e-07 1.6408127995798869e-05 -1.8917273464833693e-05 -323.42317313168479 1.0596939992169041e-11 1.9415580254644734e-12 4.9443853011865713e-08 -0.0012540566230958583 -1.7126570411818841e-13 5.6095608556145367e-12 -6.5717423432190558e-12 -0.0012536673582309672 -30.151660686400003 -110.77310694400001 46.988755992800002 74.715282964229786 0.0000000000000000 0.0000000000000000 0.0000000000000000 0.0000000000000000 3.0532105229016513 3.1070653157126293 1.0538570202076836 1.0264625243530099 679.84261986673584 600.83008621658621 1.0265757697407589 
-18.864447613242206 -103.64182720798925 47.185365508970129 -18.864447613242202 -103.64182720798929 47.185365508970115 -320.56216310943046 -1.0955403266614012e-05 8.4740649770324170e-06 -2.0199778528213516e-05 -321.04286341607451 7.6212508526296574e-12 1.4594436770209997e-12 4.8482903025615087e-08 -0.0012525935473684808 -3.7551073625293595e-12 3.7625327246786388e-12 -5.9709668908387467e-12 -0.0012520269473486713 -18.735150314000002 -103.56704831999998 50.008419303199993 79.719497061372692 0.0000000000000000 0.0000000000000000 0.0000000000000000 0.0000000000000000 3.0529630669435792 3.1065675226303502 1.0536066767321659 1.0264625243530101 670.64525140638250 700.90849944963054 1.0264534405961991 
-25.651044863627664 -98.545337238743485 48.177228999154238 -25.651044863627668 -98.545337238743457 48.177228999154266 -324.78371217745894 1.6619503685024644e-07 4.0526044330394042e-06 -3.1067797767873239e-05 0.0000000000000000 9.3836605152830527e-12 1.1383671782994043e-12 4.8173001143680949e-08 -0.0012548706438807594 -1.0421958724358839e-12 3.3017740732148064e-12 -7.5400438250182134e-12 0.0000000000000000 -25.491879232152165 -98.487589184379729 50.982237960580505 72.292163684038698 0.0000000000000000 0.0000000000000000 0.0000000000000000 0.0000000000000000 3.0529126803321045 3.1064691479643454 1.0535587110061444 1.0264625243530094 677.18195285586057 658.31929395779309 1.0264299002958408 
-25.486590495240698 -104.27078233596639 107.00759532490149 -25.486590495240687 -104.27078233596646 107.00759532490153 -114.52137307629862 1.0332313202672268e-05 3.4878086830961590e-05 -7.2490251377546161e-06 0.0000000000000000 -1.7137279602205092e-09 -4.5503186253667019e-08 -1.2517763384500904e-07 -0.0012333429763468494 8.6720972335253838e-11 1.6618351250475782e-14 -3.3067318220817861e-10 0.0000000000000000 -25.283559732051039 -104.23282252886388 108.75695162467670 96.378087069502698 0.0000000000000000 0.0000000000000000 0.0000000000000000 0.0000000000000000 3.0642220190257254 3.1293004687102548 1.0650764372216590 1.0339251201568767 329.48554356430321 329.48544852149274 1.0320090521083813 
-26.127422195577353 -118.09150137633883 108.93885789350718 -26.127422195577342 -118.09150137633880 108.93885789350722 -89.517327755277890 1.7483188277340501e-05 4.3071525455670599e-06 -1.3723874623826330e-05 0.0000000000000000 2.5042389411188232e-08 -1.4223928128188104e-07 -2.1465509431470666e-07 -0.0012689506713143889 9.4406227304079632e-11 -1.3380662685207532e-10 -2.3362360738115716e-10 0.0000000000000000 -25.913646985361510 -118.01095136745833 110.66456878241424 88.846747377876298 0.0000000000000000 0.0000000000000000 0.0000000000000000 0.0000000000000000 3.0877684534498537 3.1774732025717145 1.0897140059552373 1.0407168144437124 331.94916631663250 331.94923959289127 1.0439108187698247 
-36.562428034926704 -112.70455967035028 110.35604547820235 -36.562428034926697 -112.70455967035024 110.35604547820232 -91.220089997517661 -9.3663063110692468e-06 2.3513037573970191e-05 1.5285207886887352e-05 0.0000000000000000 -3.3018352419562846e-08 -1.9874619252998024e-07 -2.7779334027427260e-07 -0.0012150524076756245 -6.1093809909662166e-11 -2.1340317690048839e-11 4.3596811019043912e-11 0.0000000000000000 -36.236867317722961 -112.72601430119678 112.03758904139967 95.996160021407249 0.0000000000000000 0.0000000000000000 0.0000000000000000 0.0000000000000000 3.0904958998645511 3.1830780579891766 1.0925942659531456 1.0432211466353971 340.52550174999834 340.52546655189866 1.0452749880495775 
-33.654318519455344 -105.05301241140519 103.77511895544841 -33.654318519455359 -105.05301241140522 103.77511895544833 -113.53445823364414 1.0670547796758170e-06 4.0169189992932012e-05 -1.1742041680611875e-05 0.0000000000000000 -9.7685102461812412e-09 -1.0587245628005930e-07 -2.1832792891545770e-07 -0.0012605056588168770 8.7922637416256667e-11 1.5748414585680783e-11 -2.0147599825884432e-10 0.0000000000000000 -33.380789828628046 -105.09637623893835 105.63342596379557 85.433794965156210 0.0000000000000000 0.0000000000000000 0.0000000000000000 0.0000000000000000 3.0789899909588407 3.1593386219770525 1.0803506700393664 1.0376574454643877 348.29605181590466 348.29612636839175 1.0393963388068530 
-112.76196978555485 -160.92969616199377 123.22458810997529 -112.76196978555483 -160.92969616199380 123.22458810997524 -227.86973598940440 1.4443077319606225e-06 -4.5742897673434611e-06 -1.2215091654074835e-05 -227.25532840365483 3.1986691073626616e-11 5.2267079553303120e-12 2.4725003822112509e-08 -0.0012287874997641754 1.1870539867123261e-12 -3.3619021847251674e-12 -1.6102155957070776e-11 -0.0012273838196020953 -112.21942232800005 -160.66347960400000 124.66427103520003 147.55923210393107 0.0000000000000000 0.0000000000000000 0.0000000000000000 0.0000000000000000 3.0575142470317611 3.1159084776493908 1.0583980179512780 1.0264625243530108 518.48406560453907 518.48397943913449 1.0287997165460845 
-100.01908250969859 -158.35229266221268 114.99544663010592 -100.01908250969866 -158.35229266221268 114.99544663010599 -233.12983501958803 -1.1225190277442582e-05 -8.0227046355282490e-06 -2.3769261056352478e-05 0.0000000000000000 2.8679003616360884e-11 5.0439652454770112e-12 2.7296136462240383e-08 -0.0012421058899330564 6.7945933882097015e-12 5.6554268696023845e-12 -6.4605082751572755e-12 0.0000000000000000 -99.532617471171264 -158.09468895943013 116.58484116745363 117.70414803503969 0.0000000000000000 0.0000000000000000 0.0000000000000000 0.0000000000000000 3.0418467287628910 3.0834494607269107 1.0415971951510627 1.0216803170268811 494.92836849837835 494.92914540829031 1.0205743484318892 
-104.85029010444219 -149.08160384903832 119.38217321285160 -104.85029010444215 -149.08160384903837 119.38217321285161 -222.69969659006100 -9.7392286840824156e-06 -8.8247529383291866e-06 -1.1140533123965521e-05 0.0000000000000000 2.9935554035631640e-11 4.4424464107351014e-12 2.5925527946668584e-08 -0.0012321020750823825 1.2350158674515712e-11 -6.4219518473368940e-12 -1.2300563245401442e-11 0.0000000000000000 -104.34256255272837 -148.85497981259945 120.89176065121424 119.29379793442074 0.0000000000000000 0.0000000000000000 0.0000000000000000 0.0000000000000000 3.0426658297441218 3.0854064499347662 1.0427396928474228 1.0220260329625019 478.75790995524596 478.75775727203165 1.0211305479776625 
-101.02128550513737 -162.55470152208235 123.12634518900663 -101.02128550513730 -162.55470152208235 123.12634518900668 -225.34067327699680 -6.4747559613398873e-06 -1.2524460360184248e-05 -1.0999224743031733e-05 0.0000000000000000 2.8940072560601493e-11 5.3280713174785888e-12 2.4755701932832604e-08 -0.0012323670967478715 9.9533433376507359e-12 -1.3594204161805994e-12 -1.6349583234907631e-11 0.0000000000000000 -100.53040969477119 -162.28305471776312 124.56781543385799 141.51484144144280 0.0000000000000000 0.0000000000000000 0.0000000000000000 0.0000000000000000 3.0439009060895468 3.0880656362472094 1.0441643230245499 1.0223844674663201 485.55007379273951 485.54995680716604 1.0218326287151820 
-78.793577545533722 -149.02386909341718 87.355993704540410 -78.793577545533722 -149.02386909341720 87.355993704540410 -237.63528553071222 -2.8084128919806648e-05 -1.9505748634265569e-05 -9.4945593701130945e-06 -237.64273431057333 2.3163748696930494e-11 4.4507175722685588e-12 3.5931878805683937e-08 -0.0012741806119011862 1.4654759198399926e-11 -1.6907783303825828e-12 3.7580294601938838e-12 -0.0012815090070229689 -78.400527573600002 -148.79743798799998 89.448228916799977 108.06316173413846 0.0000000000000000 0.0000000000000000 0.0000000000000000 0.0000000000000000 3.0566054587149223 3.1139570462227515 1.0573548639570785 1.0264625243530103 534.32119487863633 534.32165661783074 1.0282878635567008 
-80.550144043897561 -162.80713467087750 85.649732740699392 -80.550144043897561 -162.80713467087750 85.649732740699392 -281.16520348586113 -1.6504120304431751e-05 -3.1518220877903287e-05 -1.7427114914260685e-05 -282.59523355541563 2.3631097079146457e-11 5.3366200347682025e-12 3.6464992803075802e-08 -0.0012687105512140106 9.5610869454748417e-12 1.7778753912982004e-12 5.8883098922077069e-12 -0.0012690818724441358 -80.149363288800018 -162.53464431600008 87.773009718400019 109.57810873427631 0.0000000000000000 0.0000000000000000 0.0000000000000000 0.0000000000000000 3.0571955099628734 3.1150956914538379 1.0579026908002616 1.0264625243530081 611.73394075723468 611.72984038567290 1.0285588101369432 
-84.714587400821443 -160.44904374858353 92.983337485520551 -84.714587400821486 -160.44904374858348 92.983337485520536 -261.47766810994949 -1.2271775773661390e-05 -2.1840154408544582e-05 -3.2469727997116065e-05 0.0000000000000000 2.4711122037501809e-11 5.1715298710064417e-12 3.4173663898684481e-08 -0.0012693818770963847 3.8650202843380902e-12 3.9254234381244782e-12 -2.5659955632257286e-12 0.0000000000000000 -84.295478612813938 -160.18443337667750 94.973195224810283 106.11323630727971 0.0000000000000000 0.0000000000000000 0.0000000000000000 0.0000000000000000 3.0428378774065168 3.0861280837808738 1.0432911004753571 1.0223741249870908 544.54941582588447 544.55164765832694 1.0213969660117277 
-86.902749740193642 -151.62527327918278 90.601290906126906 -86.902749740193656 -151.62527327918272 90.601290906126906 -253.76432652861112 -1.3744760679861291e-05 -2.8325476631533308e-05 -3.1422360317833613e-05 0.0000000000000000 2.5279112136900039e-11 4.5989878572072485e-12 3.4917916558185880e-08 -0.0012718152845283606 -2.8019416793095490e-13 1.1270098935720816e-11 -1.1060573612609728e-12 0.0000000000000000 -86.474010682800568 -151.39014911596544 92.634484883397832 94.367740677547317 0.0000000000000000 0.0000000000000000 0.0000000000000000 0.0000000000000000 3.0481532016751438 3.0968856717106945 1.0487347143907391 1.0233003953083950 540.18777923171410 540.19422564045078 1.0240771373114439 
-26.180150797052818 -132.60245110939812 137.46399719100569 -26.180150797052818 -132.60245110939812 137.46399719100572 -147.86949753866833 1.0672317599980963e-05 -9.2329032080893958e-06 4.2163598936309453e-05 -154.71824336716048 9.5191493576507469e-12 3.3613667405063548e-12 2.0275998657837135e-08 -0.0011926420290841763 -2.4005947577230328e-11 5.4098173849372068e-12 -8.4082780303040310e-12 -0.0011801448275121709 -26.018656529999991 -132.43089511199997 138.64462455200004 49.421240865332216 0.0000000000000000 0.0000000000000000 0.0000000000000000 0.0000000000000000 3.0524183540350953 3.1054493503648151 1.0530335016375916 1.0284387894165969 368.39906221180570 368.39906391554547 1.0261831711717879 
-32.685572036612179 -134.13348554304986 136.40302060131523 -32.685572036612172 -134.13348554304989 136.40302060131532 -142.44793203779622 -1.4578139341840969e-06 6.2649361513659829e-06 2.5307936980760080e-05 -124.50810976571135 1.1210449235576903e-11 3.4642289037378760e-12 2.0607499706670751e-08 -0.0012131673126064926 -2.2546317902117146e-11 -3.1831312238494171e-11 -6.2739214735287923e-11 -0.0011693857689070197 -32.495446914399992 -133.95681332000001 137.60295016000006 48.530522504776933 0.0000000000000000 0.0000000000000000 0.0000000000000000 0.0000000000000000 3.0672948812669762 3.1357105673804062 1.0684204011134666 1.0336618777976390 390.47903605981526 390.47904712892318 1.0336255772020548 
-28.590305397715646 -136.62377106594511 139.16025700697179 -28.590305397715653 -136.62377106594516 139.16025700697176 -149.32356859286301 1.3297036892026709e-05 7.2268617021972820e-06 1.3227789466357373e-05 -155.92210335643952 1.0146189444171227e-11 3.6374792067306316e-12 1.9746025259337330e-08 -0.0011997017706101233 -1.9891352032237391e-11 -4.1634861663978332e-12 -3.2836839037100916e-11 -0.0011929896135840028 -28.418203856399998 -136.43877710800004 140.31002455199999 44.353383947079159 0.0000000000000000 0.0000000000000000 0.0000000000000000 0.0000000000000000 3.0556840150319458 3.1120184148076651 1.0563362158405316 1.0300371692198327 379.06067113239777 379.06067178176914 1.0277761398581791 
-26.933173870361323 -129.66347199717092 142.76413160471884 -26.933173870361319 -129.66347199717089 142.76413160471884 -157.62614122298621 4.6608246569242595e-06 5.7863828147922612e-06 8.6501981984419744e-06 0.0000000000000000 9.7147984101653151e-12 3.1801228317362980e-12 1.8620008646053066e-08 -0.0011861862725942979 -9.9277718032891250e-12 -4.0041696880605135e-12 -1.2947305177615563e-11 0.0000000000000000 -26.768365491316434 -129.50173712462359 143.84833436668455 49.139845408488213 0.0000000000000000 0.0000000000000000 0.0000000000000000 0.0000000000000000 3.0568512125514853 3.1145503889277522 1.0577024576308023 1.0300992642255180 398.43262229649650 398.43261565703602 1.0284417383645432 
-40.292365124095454 -65.423135282864166 153.05642452172185 -40.292365124095454 -65.423135282864195 153.05642452172191 -211.69983558603877 -5.0012025449643381e-06 -1.3427387057720979e-07 8.1387110585815141e-06 -213.13684530581565 1.3184314751057968e-11 -1.0430545316353346e-12 1.5404267639240740e-08 -0.0011834193224617043 -1.1669946597835721e-12 8.1678606993254339e-13 -3.0110400808717182e-13 -0.0011827615940286080 -40.068761925200000 -65.476070995999990 153.95338104800004 156.95717166164070 0.0000000000000000 0.0000000000000000 0.0000000000000000 0.0000000000000000 3.0514990499303996 3.1036375824336724 1.0521411445027549 1.0256229024248191 477.88991599290529 477.88991582940957 1.0257401222261522 
-52.704990013565443 -59.583325787169144 148.27996043113924 -52.704990013565443 -59.583325787169123 148.27996043113924 -214.50843887347938 -5.0432297929459748e-06 -1.3390970193855865e-06 6.5171170353748958e-06 -215.16852773234874 1.6398132851591640e-11 -1.4203638265541940e-12 1.6896622767603731e-08 -0.0011857383942631453 -1.0156077855717124e-12 1.5752882787467912e-12 -3.6779829405593506e-12 -0.0011853942244726156 -52.426757905599978 -59.655776269200025 149.26381449600007 118.05125250056595 0.0000000000000000 0.0000000000000000 0.0000000000000000 0.0000000000000000 3.0542591006219815 3.1092406608197356 1.0549843934440000 1.0257679584956159 488.65176200523814 488.65176211433146 1.0271263354858424 
-35.374878226314216 -65.978690943160771 143.93672109755440 -35.374878226314209 -65.978690943160785 143.93672109755443 -206.53762496357592 -1.6058772146358067e-06 9.2237771313245170e-07 6.5876588418311715e-07 -206.42857602849429 1.1904810470753091e-11 -9.9653618690354051e-13 1.8253641709264912e-08 -0.0011843551995284580 -1.9999890095970457e-12 2.9012522368630043e-12 -5.9843984037796678e-12 -0.0011825559828360329 -35.172917262399999 -66.029770167599992 144.99959110400002 155.12084301790807 0.0000000000000000 0.0000000000000000 0.0000000000000000 0.0000000000000000 3.0536920265693732 3.1080176116609715 1.0543278079084057 1.0263644300734105 474.07790899937328 474.07790905815273 1.0268050173303502 
-50.682157713460619 -66.540927779032359 141.08878855622146 -50.682157713460604 -66.540927779032316 141.08878855622149 -210.04812150529017 -5.1504750831070095e-06 2.6010436527514568e-06 4.0773636470517961e-06 0.0000000000000000 1.5877577030920520e-11 -9.6983532316130570e-13 1.9143473473093309e-08 -0.0011876705164624000 -2.4085127267264291e-12 1.7964657456731431e-12 -5.8447020604369323e-12 0.0000000000000000 -50.412828244765279 -66.590128188430739 142.20347059834828 136.07757377940416 0.0000000000000000 0.0000000000000000 0.0000000000000000 0.0000000000000000 3.0474112070590551 3.0951644102458009 1.0477527409658796 1.0242180250417434 466.54729255458750 466.54729309090908 1.0235947477131477 
-95.024201024060744 -158.97644055670938 75.315581923732140 -95.024201024060758 -158.97644055670938 75.315581923732125 -322.66517437895828 -6.8658816882074623e-06 -9.2084191500051491e-06 -1.3430431387603800e-05 -322.65424252923225 2.7381652500935161e-11 5.0884851887644800e-12 3.9693823339348455e-08 -0.0012623540940103297 -1.9798038767355383e-12 2.3202760069492917e-12 -7.5145707188574551e-13 -0.0012613985167741345 -94.559718839999974 -158.71675115199997 77.626866652000004 109.98746742214213 0.0000000000000000 0.0000000000000000 0.0000000000000000 0.0000000000000000 3.0527368085981008 3.1061120484298277 1.0533774716593081 1.0264625243530108 674.14249138598643 674.14362180533317 1.0263412608488927 
-90.125060167406090 -158.72525521993839 80.216225802921969 -90.125060167406062 -158.72525521993839 80.216225802921969 -303.50675637074625 -2.4587044360547422e-05 -2.1454671971713351e-05 -2.7679849153316636e-05 -296.96339624622249 2.6104673978011306e-11 5.0722759326049519e-12 3.8162654369955362e-08 -0.0012632110253261353 1.9863946719358147e-12 4.9720839738349559e-12 4.1751507218472698e-12 -0.0012630645603563507 -89.682139475999989 -158.46640519600001 82.438353807199988 112.88451412247700 0.0000000000000000 0.0000000000000000 0.0000000000000000 0.0000000000000000 3.0533077320074820 3.1072309634039907 1.0539252582212664 1.0264625243530103 639.48000475945651 639.53656398276576 1.0266066199807578 
-103.21037676371331 -155.19107858467567 84.464139715179527 -103.21037676371328 -155.19107858467575 84.464139715179513 -301.01850652800852 -5.6403049475328806e-06 -4.9264826027041152e-06 -3.1625285893067334e-05 0.0000000000000000 2.9507118970428792e-11 4.8384629636188947e-12 3.6835414274349880e-08 -0.0012636306612904228 -6.7531995851286169e-13 4.4294279307395579e-12 -3.9666825279156473e-12 0.0000000000000000 -102.70986659571734 -154.94403864466588 86.608986019839278 111.02505284862640 0.0000000000000000 0.0000000000000000 0.0000000000000000 0.0000000000000000 3.0539700614056913 3.1086141457713361 1.0546463795439893 1.0257646319532114 640.96761192181327 640.72248631771447 1.0269638599384274 
-100.89739523665826 -167.46195856113297 81.470770904929594 -100.89739523665823 -167.46195856113297 81.470770904929580 -315.43874033693453 -3.3776212314515021e-06 -6.2412782333560715e-06 -3.0159377778448942e-05 0.0000000000000000 2.8899105330992825e-11 5.6441518125893716e-12 3.7770680361148841e-08 -0.0012611796661439179 1.2430590285839847e-13 9.8099078956108659e-13 1.2233008206796388e-13 0.0000000000000000 -100.40706467681501 -167.17391327890167 83.670075146830683 105.53983917324770 0.0000000000000000 0.0000000000000000 0.0000000000000000 0.0000000000000000 3.0529089066322217 3.1064618342398753 1.0535551687362494 1.0259016563139514 660.41733801129874 660.43996126157811 1.0264289092692431 
-115.17723948776982 -99.868019461803783 94.612036824023718 -115.17723948776982 -99.868019461803769 94.612036824023718 -261.57115133557465 -5.2496906109136330e-06 -7.1465299932542242e-06 -2.2609664289958659e-05 -264.23515259656591 3.2614911192368053e-11 1.2244649738590851e-12 3.3664790510812281e-08 -0.0012640152032617762 -3.5645777802234776e-12 -4.1634628518494867e-12 -1.6743694524270906e-11 -0.0012643814687227149 -114.62406224400000 -99.805851428000011 96.572263865600007 85.211636250682801 0.0000000000000000 0.0000000000000000 0.0000000000000000 0.0000000000000000 3.0541470258406704 3.1088305530538203 1.0546827907337037 1.0238139521396683 570.07958309621688 570.07958786220024 1.0269725232473110 
-111.62510614996583 -91.130612397494176 98.328657426472901 -111.62510614996584 -91.130612397494147 98.328657426472915 -249.93019131025571 -2.4012782746756078e-06 -3.4067934032667635e-07 -2.4850347327450056e-05 -248.29111898242766 3.1689539881085693e-11 6.5197847121112318e-13 3.2503558067276117e-08 -0.0012570107220488502 -3.8230629537807789e-13 3.8910032592720934e-12 -2.0681980215106896e-11 -0.0012535505033022328 -111.08756211600000 -91.097641973600034 100.22126851279998 99.535403830130534 0.0000000000000000 0.0000000000000000 0.0000000000000000 0.0000000000000000 3.0584907031356487 3.1178144310989464 1.0593276828334912 1.0255144949609623 558.38191089981615 558.38192139943396 1.0292470680453614 
-113.44992324521324 -97.710764066700904 106.64550750966505 -113.44992324521326 -97.710764066700904 106.64550750966508 -234.11578236196686 -2.2093196164243489e-06 -1.3229170604901952e-06 -2.1387605329021799e-05 -233.79708825576711 3.2154723328403634e-11 1.0736966871149889e-12 2.9905018905651559e-08 -0.0012439414400159522 -5.3841931082982828e-12 -1.0455759844199542e-11 -2.2280630718613449e-11 -0.0012441126140978996 -112.90434805199999 -97.655804887999992 108.38681131359999 128.09762094244454 0.0000000000000000 0.0000000000000000 0.0000000000000000 0.0000000000000000 3.0541111620297623 3.1089907972946822 1.0548826030432843 1.0254574113566395 523.62180264281244 523.62181426963332 1.0270754244368339 
-107.67482484426422 -103.91689939819135 98.663648366592170 -107.67482484426422 -103.91689939819130 98.663648366592170 -247.13803177492619 -2.4341012489399766e-05 -2.2647763284888621e-06 -2.6522300278800398e-05 0.0000000000000000 3.0657143490486760e-11 1.4808709813962651e-12 3.2398892457763395e-08 -0.0012616022944180595 2.8981725415369776e-12 -8.9978286910375400e-12 -1.2426186352390870e-11 0.0000000000000000 -107.15466629968294 -103.84120130723400 100.55016500991876 102.24201981555134 0.0000000000000000 0.0000000000000000 0.0000000000000000 0.0000000000000000 3.0437987332324057 3.0875677793231850 1.0437660238207089 1.0215482111980099 521.83038572131261 521.83032578052416 1.0216374276576163 
-27.087822124776032 -115.44196216161053 101.46228765056271 -27.087822124776036 -115.44196216161059 101.46228765056274 -103.02384550956501 2.1717395160601271e-05 1.2452193260849737e-05 -3.2584475586520711e-05 0.0000000000000000 2.1948850006540393e-08 -1.4237408795820660e-07 -1.7454020307276833e-07 -0.0013518443962712895 -2.1584425800757888e-11 -1.1081203476653990e-10 -2.1874069101017895e-10 0.0000000000000000 -26.889884864405381 -115.37486796036181 103.37575244326078 96.382960025775517 0.0000000000000000 0.0000000000000000 0.0000000000000000 0.0000000000000000 3.0758683451701025 3.1531823526497686 1.0773191729273470 1.0379869204426846 331.33747272192778 331.33660390827941 1.0379368332806527 
-110.09916240714283 -103.69673573867448 151.26795602215981 -110.09916240714280 -103.69673573867452 151.26795602215981 -218.68516171684161 6.2770520244091131e-07 2.0546637686786304e-06 2.5729091501801420e-07 -219.50515481369177 3.1295965818856075e-11 1.4641621248756564e-12 1.5963046440248263e-08 -0.0011853042355127004 -7.7871234378381450e-13 -7.3337457051283553e-13 -2.6883803834214298e-12 -0.0011841742036729527 -109.56833416800004 -103.62177336400003 152.19744990400002 70.302883591683823 0.0000000000000000 0.0000000000000000 0.0000000000000000 0.0000000000000000 3.0507013751726011 3.1019096413025271 1.0512095158932551 1.0253119063856415 488.66348964503118 488.66348978013048 1.0252867451515522 