# For a description of the Tecplot format see the Tecplot User's guide.
#
Variables=x,y,z,s_u,s_v,s_w,s_p,mono_f_vel_u,mono_f_vel_v,mono_f_vel_w,const,u_nu,v_nu,w_nu,p_nu,x_nu,y_nu,z_nu,const,u_ref,v_ref,w_ref,vol_ref,x_ref,y_ref,z_ref,const,I1,I2,I3,J,p1,p2,p3
Zone f=fepoint, n=3174, e=16683, et=brick, c=black
-24.9431 -154.223 111.823 -24.943112388592571 -154.22267151102426 111.82269351625904 -67.403632625009280 -2.6931479987435784e-06 -1.1660040498937466e-05 -1.1015956767369807e-05 -66.627380220103902 1.6724515869426249e-11 1.1430884017116227e-11 1.2456859987963753e-08 0.00011624645434970429 -7.8142210751344268e-13 -3.1893484334964873e-12 3.4637968503882365e-12 0.00011530071563865096 -24.903554063199991 -154.16086777200002 112.24023381839994 89.724962256112903 0.0000000000000000 0.0000000000000000 0.0000000000000000 0.0000000000000000 3.0136029637838462 3.0272348878353759 1.0136318799572310 1.0071241638906676 144.54441875910879 144.54441716571472 1.0067926038987365 
-37.499366362505512 -155.20166418212233 114.51940269587259 -37.499366362505505 -155.20166418212236 114.51940269587251 -62.103828599194280 9.2266539378836148e-06 -1.1113755171734108e-05 -5.8878457418779170e-06 0.0000000000000000 3.5787217437378515e-09 -1.2032860578835440e-08 -1.3055264691266313e-08 0.00011879863751747731 5.1250837987497415e-12 -9.5477881086782747e-12 6.1951680786345478e-12 0.0000000000000000 -37.438273663334591 -155.10473791080037 114.93291110338620 89.036758072416930 0.0000000000000000 0.0000000000000000 0.0000000000000000 0.0000000000000000 3.0200353626912455 3.0401825580899806 1.0201473430014827 1.0094826734611229 148.88656643452768 148.88656838286821 1.0100243181966346 
-31.589593133739772 -147.93555100077847 119.47912156944363 -31.589593133739761 -147.93555100077850 119.47912156944359 -58.569420902449096 3.2023667083563802e-06 -8.3347335232957455e-06 -6.6248532279499148e-07 0.0000000000000000 1.9860118757875078e-11 1.0463185873277324e-11 1.1403414990063254e-08 0.00011616481156760437 2.0003932012564946e-12 -2.9796603271922407e-12 2.4089298393460763e-12 0.0000000000000000 -31.542619574254449 -147.87907313389167 119.86135157363466 98.260374494724786 0.0000000000000000 0.0000000000000000 0.0000000000000000 0.0000000000000000 3.0163873266222789 3.0328417290192773 1.0164544384907750 1.0084956043780116 137.24089733155427 137.24089956983596 1.0081924749481990 
-28.691395925148278 -143.01969519015861 111.70644451400270 -28.691395925148292 -143.01969519015856 111.70644451400268 -57.691804747009620 4.3239821266543797e-06 -9.4780420063679408e-06 -6.9076354973577698e-06 0.0000000000000000 1.8493767281468898e-11 9.6947172512074092e-12 1.2472863963886026e-08 0.00012024516245975356 1.1079258112095851e-11 -2.2221566678880857e-12 3.3830472719672916e-12 0.0000000000000000 -28.647655777685479 -142.96738158566356 112.12452093910819 112.69127588814607 0.0000000000000000 0.0000000000000000 0.0000000000000000 0.0000000000000000 3.0173909279756921 3.0348665207639698 1.0174757045068548 1.0085498325691589 137.05667086406399 137.05666528671011 1.0086999097649001 
-24.300701807937244 -200.53319345979742 73.130563881827328 -24.300701807937244 -200.53319345979742 73.130563881827342 -117.24447357017844 2.4375894008546666e-07 -7.9343384393997611e-09 2.2206797062375532e-07 -117.59064007221670 1.6424405238635312e-11 1.8710283322675994e-11 1.7780494965258246e-08 0.00011825292190466916 2.0659945306199209e-13 9.7332789168017162e-15 3.8093810257639624e-14 0.00011822911200238538 -24.261860196399997 -200.43215969199997 73.726546483199982 142.71380061529433 0.0000000000000000 0.0000000000000000 0.0000000000000000 0.0000000000000000 3.0132350364480058 3.0265105262849947 1.0132755252479384 1.0066080079575035 232.24553323255299 232.24553323261242 1.0066158805878398 
-24.196122699272394 -187.72926516151693 74.721235570704081 -24.196122699272394 -187.72926516151691 74.721235570704067 -116.04163715638406 1.4131915379914798e-06 -2.0848552589013822e-06 -6.4446999782490775e-07 -116.40341174543451 1.6373983766082567e-11 1.6702583760519474e-11 1.7561636700413885e-08 0.00011821251651263659 1.3238943798249412e-13 6.8010419185142801e-14 7.7524043218617015e-14 0.00011821694741061259 -24.157397762799999 -187.63907770800003 75.309882232799993 165.73632395326644 0.0000000000000000 0.0000000000000000 0.0000000000000000 0.0000000000000000 3.0132358979458158 3.0265119900503672 1.0132761268377890 1.0066080079575059 230.23609790098527 230.23609790075892 1.0066161658352384 
-34.936249574159007 -195.50810591005245 81.037160557522569 -34.936249574159007 -195.50810591005234 81.037160557522540 -115.52317649086272 4.5131642581551675e-07 -1.6460357271704128e-06 -3.3356113458250565e-06 0.0000000000000000 2.1440965322638839e-11 1.7918805328420717e-11 1.6692637827553369e-08 0.00011839107868016438 2.1925511879035204e-13 3.5204200015429828e-14 8.5312632517174367e-14 0.0000000000000000 -34.885542273181727 -195.41132893576267 81.596679120775832 139.46796289390394 0.0000000000000000 0.0000000000000000 0.0000000000000000 0.0000000000000000 3.0131246480602405 3.0262893803344459 1.0131647677870272 1.0064892482684871 229.11394094121357 229.11394094099907 1.0065608497003078 
-18.855367413233679 -194.62572950757445 80.852585201389815 -18.855367413233690 -194.62572950757448 80.852585201389800 -116.58893810079290 6.9998425573118259e-07 -1.0152934940665200e-06 -1.5457137471513020e-06 0.0000000000000000 1.3853375044337035e-11 1.7785356520860773e-11 1.6718034068219367e-08 0.00011806043681031829 1.0793404112675961e-13 7.5337897852489369e-14 1.1251022354020324e-13 0.0000000000000000 -18.822600960987238 -194.52970000168264 81.412954998504986 111.95285379220412 0.0000000000000000 0.0000000000000000 0.0000000000000000 0.0000000000000000 3.0132588175344117 3.0265580334747475 1.0132992512133088 1.0066080079575064 231.81794080343869 231.81794080341018 1.0066276735874515 
-22.701039000582782 -103.22651382119739 42.501442032494637 -22.701039000582782 -103.22651382119739 42.501442032494644 -118.37154349006028 -2.4119638285794993e-06 2.7505587426232248e-06 -3.7118624879961836e-06 -119.06715157324786 1.5667430894317214e-11 3.4375974289346800e-12 2.1994747578801818e-08 0.00011586673185495848 1.9705169591431229e-13 -3.6774507821633905e-13 5.1690361301907130e-13 0.00011596653776963348 -22.663982073999996 -103.20790935200000 43.238681550399988 69.202643319072678 0.0000000000000000 0.0000000000000000 0.0000000000000000 0.0000000000000000 3.0132092454299451 3.0264587537959717 1.0132495435353530 1.0066080079575048 234.36564056567462 235.13579177187279 1.0066029810043868 
-30.197080670950761 -110.79812538840521 46.268891386311658 -30.197080670950758 -110.79812538840521 46.268891386311672 -116.34241355097492 1.5941352557607671e-07 4.4176513353532079e-06 -4.9957462674131027e-06 -115.54400467029110 1.9205725551585395e-11 4.6272291553961509e-12 2.1476388001318014e-08 0.00011562426265206284 9.0303705981126603e-14 -5.5606332196061456e-13 7.0486406148171553e-13 0.00011564616349043041 -30.151660686400003 -110.77310694400001 46.988755992800002 74.715282964229786 0.0000000000000000 0.0000000000000000 0.0000000000000000 0.0000000000000000 3.0132798973368211 3.0266002490344088 1.0133203869534830 1.0066080079575057 230.52019141691821 230.45852995927950 1.0066381872614247 
-18.767819091804480 -103.58595727674168 49.302545454317482 -18.767819091804480 -103.58595727674172 49.302545454317489 -114.83262830405680 -2.9307492065488174e-06 2.3069443412666850e-06 -5.3485351872988065e-06 -114.95707305274055 1.3811519636308665e-11 3.4937192028294821e-12 2.1058985111288564e-08 0.00011548111881528967 2.7561904096525542e-13 -3.7364012194696646e-13 5.8558668203398661e-13 0.00011545121407018273 -18.735150314000002 -103.56704831999998 50.008419303199993 79.719497061372692 0.0000000000000000 0.0000000000000000 0.0000000000000000 0.0000000000000000 3.0132149929723755 3.0264702432059853 1.0132552853686605 1.0066080079575059 228.05733190762035 227.92959203948291 1.0066058234887303 
-25.532094663404461 -98.502191640918483 50.280876025572802 -25.532094663404454 -98.502191640918511 50.280876025572780 -116.03331080718664 -2.8270920697707229e-08 1.1528125105765788e-06 -8.1360579483788459e-06 0.0000000000000000 1.7002994498471761e-11 2.7054053441943889e-12 2.0924379673381566e-08 0.00011564080976349496 5.9579099859243695e-14 -2.6323821385111454e-13 7.7337134630520012e-13 0.0000000000000000 -25.491879232152165 -98.487589184379729 50.982237960580505 72.292163684038698 0.0000000000000000 0.0000000000000000 0.0000000000000000 0.0000000000000000 3.0132000031080306 3.0264404005343977 1.0132404328901856 1.0066080079575059 229.91394153785015 229.77663531101919 1.0065984346213204 
-25.336629770166958 -104.24041217828362 108.31906205022108 -25.336629770166955 -104.24041217828366 108.31906205022101 -58.313330373285815 3.0340155845942015e-06 1.0337562050366495e-05 -2.8536041180338326e-06 0.0000000000000000 1.7951706873467181e-08 1.2556650799634066e-08 2.3320578498004540e-08 0.00011127006672157669 -7.9961405959758243e-12 1.0268278572716136e-12 2.6671435984456858e-11 0.0000000000000000 -25.283559732051039 -104.23282252886388 108.75695162467670 96.378087069502698 0.0000000000000000 0.0000000000000000 0.0000000000000000 0.0000000000000000 3.0163836629838703 3.0328195677666332 1.0164358341520296 1.0087433286194074 134.84987372507752 134.83200483280677 1.0081830222028181 
-25.969853118093745 -118.02839379930741 110.23277586379551 -25.969853118093742 -118.02839379930731 110.23277586379560 -50.296961338355253 5.7972966122424839e-06 1.9703180294854465e-06 -4.2046024764297655e-06 0.0000000000000000 1.7110569253600114e-08 7.5761575791922652e-09 3.2750086317847624e-08 0.00011543492335547406 -7.5235364560772633e-12 1.2571648366515160e-11 2.0509714729363405e-11 0.0000000000000000 -25.913646985361510 -118.01095136745833 110.66456878241424 88.846747377876298 0.0000000000000000 0.0000000000000000 0.0000000000000000 0.0000000000000000 3.0233878238232093 3.0469133999172637 1.0235257403836657 1.0107667440818187 134.60970667527101 134.61003051816522 1.0116959842596425 
-36.323962796716110 -112.71415714100007 111.61830679426160 -36.323962796716131 -112.71415714100011 111.61830679426158 -50.783256151042977 -2.1411784705621516e-06 8.2476917503887354e-06 5.5938173992497932e-06 0.0000000000000000 2.5250628929649844e-08 1.6390147912051885e-08 4.0939974995017914e-08 0.00011019085800599732 3.6436247707559618e-12 2.5016433683358527e-12 -3.6136506135209739e-12 0.0000000000000000 -36.236867317722961 -112.72601430119678 112.03758904139967 95.996160021407249 0.0000000000000000 0.0000000000000000 0.0000000000000000 0.0000000000000000 3.0242865158778889 3.0487229424729447 1.0244366525039907 1.0115111096654139 137.20102457042654 137.20532226948001 1.0121448310198671 
-33.453410813730173 -105.07984226614633 105.16659247219170 -33.453410813730187 -105.07984226614640 105.16659247219164 -58.184859291296256 5.0415706028201534e-07 1.2039367896046787e-05 -5.0262895889081968e-06 0.0000000000000000 2.8886719092152029e-08 2.3949672096943815e-08 3.3624828025623193e-08 0.00011366595430697348 -7.3045762539882564e-12 4.0761892342405298e-13 1.9187403304600789e-11 0.0000000000000000 -33.380789828628046 -105.09637623893835 105.63342596379557 85.433794965156210 0.0000000000000000 0.0000000000000000 0.0000000000000000 0.0000000000000000 3.0204513838698408 3.0409909254819305 1.0205395430664082 1.0097575441121776 140.53039811678343 140.53302843905746 1.0102173234443439 
-112.35650455974904 -160.73079642983654 124.30429400264187 -112.35650455974904 -160.73079642983654 124.30429400264187 -90.707539287976502 3.4096093990372838e-07 -1.0868075152954921e-06 -3.0713266614318100e-06 -90.555854646151815 5.7953758111906062e-11 1.2458284404104346e-11 1.0739521494329551e-08 0.00011408123321017672 -8.0167349655272503e-14 1.7538697337390950e-13 1.4925632829531113e-12 0.00011400123274428224 -112.21942232800005 -160.66347960400000 124.66427103520003 147.55923210393107 0.0000000000000000 0.0000000000000000 0.0000000000000000 0.0000000000000000 3.0144696236378610 3.0289956137868157 1.0145260513852370 1.0066080079575037 188.64377227965130 188.64377223144132 1.0072379469711881 
-99.655529692435238 -158.15982789641342 116.18743037713725 -99.655529692435252 -158.15982789641345 116.18743037713728 -91.923233305983743 -3.0031005035134412e-06 -1.9827003920443860e-06 -6.1902831681540852e-06 0.0000000000000000 5.1962481192879834e-11 1.2052053799394001e-11 1.1856327253312314e-08 0.00011506446758732762 -2.6232685191041967e-13 -7.0351152399974676e-13 -1.0511813743393659e-13 0.0000000000000000 -99.532617471171264 -158.09468895943013 116.58484116745363 117.70414803503969 0.0000000000000000 0.0000000000000000 0.0000000000000000 0.0000000000000000 3.0101069718642743 3.0201939725039906 1.0100869039252698 1.0053282712719989 181.51471773433607 181.51471773519978 1.0050299201397197 
-104.47084704644446 -148.91228507905726 120.51430475663666 -104.47084704644445 -148.91228507905726 120.51430475663666 -89.398544479651818 -2.6267387931774125e-06 -2.1097841487864614e-06 -2.9121128458144361e-06 0.0000000000000000 5.4239368205144523e-11 1.0612150047606406e-11 1.1260994581263617e-08 0.00011436989360161610 -9.7508278261638919e-13 4.5491384481274899e-13 5.1365657156581448e-13 0.0000000000000000 -104.34256255272837 -148.85497981259945 120.89176065121424 119.29379793442074 0.0000000000000000 0.0000000000000000 0.0000000000000000 0.0000000000000000 3.0103833282000347 3.0207684960461538 1.0103851505008630 1.0054054949324680 177.76174360767166 177.76174366000484 1.0051780329131574 
-100.65443635946131 -162.35174466234520 124.20739150149707 -100.65443635946126 -162.35174466234517 124.20739150149710 -89.951654150599381 -1.8104158777853657e-06 -3.1244703147918517e-06 -2.7117533301117515e-06 0.0000000000000000 5.2434437000647989e-11 1.2722434217238288e-11 1.0752865264862521e-08 0.00011418031212544696 -8.2419722553355692e-13 -2.0454565289696938e-13 1.4616044008347251e-12 0.0000000000000000 -100.53040969477119 -162.28305471776312 124.56781543385799 141.51484144144280 0.0000000000000000 0.0000000000000000 0.0000000000000000 0.0000000000000000 3.0106987827784386 3.0214122901798723 1.0107134987194606 1.0055059074708672 179.26302599525124 179.26302599835881 1.0053416594598807 
-78.499837166873917 -148.85469446897255 88.925088293314957 -78.499837166873917 -148.85469446897258 88.925088293314957 -92.601515023955798 -7.4975522083469746e-06 -5.0437330732592519e-06 -2.5114299112625069e-06 -92.550755686730540 4.1996453190029648e-11 1.0596634680837269e-11 1.5607335535072764e-08 0.00011702143572674612 -5.0653071959657480e-13 5.4651142796677775e-13 -1.5029061488525370e-14 0.00011782364753960703 -78.400527573600002 -148.79743798799998 89.448228916799977 108.06316173413846 0.0000000000000000 0.0000000000000000 0.0000000000000000 0.0000000000000000 3.0140980087983129 3.0282430434829282 1.0141450875208364 1.0066080079575055 191.25809390593801 191.25809395214839 1.0070483306239821 
-80.250626172969504 -162.60354756491762 87.242107439613633 -80.250626172969518 -162.60354756491762 87.242107439613633 -103.93325457953270 -4.4389343245361951e-06 -8.0222420339744059e-06 -4.5417487608397323e-06 -104.30469162593978 4.2809344610872386e-11 1.2751216749151696e-11 1.5838894529274228e-08 0.00011749544042989131 -7.8427469681153402e-13 7.6035628351331628e-13 -8.7226337924688977e-14 0.00011769824507365713 -80.149363288800018 -162.53464431600008 87.773009718400019 109.57810873427631 0.0000000000000000 0.0000000000000000 0.0000000000000000 0.0000000000000000 3.0142886943721829 3.0286218505787641 1.0143331962928248 1.0066080079575062 211.59161066955755 211.59161066730118 1.0071420786848901 
-84.401372331797802 -160.25134405441432 94.475652973213087 -84.401372331797759 -160.25134405441437 94.475652973213087 -98.856818802935138 -3.4272824850033827e-06 -5.5868187002876542e-06 -8.4161552121531043e-06 0.0000000000000000 4.4772135651682803e-11 1.2397083359871885e-11 1.4843641760187152e-08 0.00011730667207547492 -2.7235857373930128e-15 8.4035583867390703e-14 9.6603928092385676e-13 0.0000000000000000 -84.295478612813938 -160.18443337667750 94.973195224810283 106.11323630727971 0.0000000000000000 0.0000000000000000 0.0000000000000000 0.0000000000000000 3.0106553971047991 3.0213381954983540 1.0106828098827227 1.0055786605696555 194.26625780456405 194.26625780105951 1.0053259968947819 
-86.582337624540003 -151.44960376621168 92.126106877568006 -86.582337624540045 -151.44960376621160 92.126106877567977 -96.968113396695955 -3.7882666590345781e-06 -7.2489660058408926e-06 -8.1622198349172928e-06 0.0000000000000000 4.5808501089594778e-11 1.1000866884103287e-11 1.5166905065200353e-08 0.00011713163307160074 2.9329741184800911e-13 -2.0441801974604960e-13 3.9106517023263149e-13 0.0000000000000000 -86.474010682800568 -151.39014911596544 92.634484883397832 94.367740677547317 0.0000000000000000 0.0000000000000000 0.0000000000000000 0.0000000000000000 3.0120101043722509 3.0240561450198538 1.0120460761860957 1.0058059869557572 193.27525904776209 193.27525905270849 1.0060049786920500 
-26.059460323721655 -132.47427560375115 138.34942154130837 -26.059460323721662 -132.47427560375121 138.34942154130837 -68.314430239838799 3.1369250709239728e-06 -2.7674181916897495e-06 1.2807854070933916e-05 -70.348494012245524 1.7250640152455254e-11 8.0317280604091934e-12 8.8070716275368000e-09 0.00010403242719797517 1.9342115153475613e-12 -1.0739566664002942e-12 4.3112016080662160e-12 0.00010270535105586150 -26.018656529999991 -132.43089511199997 138.64462455200004 49.421240865332216 0.0000000000000000 0.0000000000000000 0.0000000000000000 0.0000000000000000 3.0131009579739376 3.0262415451165454 1.0131406311394959 1.0071922359266308 146.58264345032018 146.58272213936493 1.0065496441244375 
-32.543484695614318 -134.00148752568739 137.30292084504046 -32.543484695614318 -134.00148752568745 137.30292084504040 -66.840093659477830 -6.1124074140685454e-07 1.5152907424338590e-06 8.2204006415495645e-06 -62.028959230152871 2.0312430557001271e-11 8.2757273256461872e-12 8.9510405754111844e-09 0.00010512579374618581 7.6145980240848817e-13 1.6500931459645468e-12 9.6794329391256201e-12 9.7011525982959739e-05 -32.495446914399992 -133.95681332000001 137.60295016000006 48.530522504776933 0.0000000000000000 0.0000000000000000 0.0000000000000000 0.0000000000000000 3.0172650898498223 3.0346006950057274 1.0173356774178688 1.0086794087806705 153.17159822927621 153.17165443191288 1.0086286348464217 
-28.461687726875262 -136.48555558842833 140.02253770212553 -28.461687726875258 -136.48555558842830 140.02253770212559 -69.059230960588565 4.2445747497098083e-06 1.6367979219083352e-06 3.9705566607151690e-06 -71.175493811826271 1.8384174391150587e-11 8.6660401077409688e-12 8.5768713242728739e-09 0.00010338820176206800 2.7707638378940566e-12 -6.2066554127938859e-13 2.4468133117696093e-12 0.00010197746301806255 -28.418203856399998 -136.43877710800004 140.31002455199999 44.353383947079159 0.0000000000000000 0.0000000000000000 0.0000000000000000 0.0000000000000000 3.0141066149349198 3.0282552070515889 1.0141486216775546 1.0076841494426134 150.55794154211827 150.55793688388897 1.0070487659053227 
-26.810006641958317 -129.54263419852848 143.57724127659824 -26.810006641958310 -129.54263419852848 143.57724127659824 -71.352538807563562 1.1212269576174970e-06 1.3775177564252446e-06 2.8393569025901906e-06 0.0000000000000000 1.7606595001384839e-11 7.5627559770197195e-12 8.0877716746030615e-09 0.00010257838101792914 -2.5437564752422332e-13 -4.1715715220265432e-13 2.0248944971083067e-12 0.0000000000000000 -26.768365491316434 -129.50173712462359 143.84833436668455 49.139845408488213 0.0000000000000000 0.0000000000000000 0.0000000000000000 0.0000000000000000 3.0142415013558552 3.0285363411278969 1.0142948904370821 1.0076620694705896 155.47652955852379 155.47652830975267 1.0071216192860295 
-40.125258412473123 -65.462685411690160 153.72910683941839 -40.125258412473123 -65.462685411690146 153.72910683941839 -86.737673728862504 -1.4460019663860989e-06 -2.1062429875844202e-08 2.2561462583325237e-06 -87.140138148329996 2.3887758091034605e-11 -2.4722446312352986e-12 6.6909893181588140e-09 0.00010772403560170144 1.1387323950675625e-12 -5.9802143831878414e-13 -8.1200674828644791e-14 0.00010779032832747927 -40.068761925200000 -65.476070995999990 153.95338104800004 156.95717166164070 0.0000000000000000 0.0000000000000000 0.0000000000000000 0.0000000000000000 3.0127595234502658 3.0255589882848213 1.0127995070867828 1.0063703391874497 178.08065592834251 178.09675835553438 1.0063794720587642 
-52.497057153662155 -59.637456084620204 149.01781250449653 -52.497057153662134 -59.637456084620219 149.01781250449653 -87.518643948330350 -1.3802261374504644e-06 -4.2710077427613370e-07 1.9219801205273550e-06 -87.689042829466104 2.9724568292865954e-11 -3.3922170628031263e-12 7.3392169008812402e-09 0.00010872451003421583 5.7844726238598999e-13 -5.3647272164311254e-14 -2.1890287946145854e-13 0.00010864174075948461 -52.426757905599978 -59.655776269200025 149.26381449600007 118.05125250056595 0.0000000000000000 0.0000000000000000 0.0000000000000000 0.0000000000000000 3.0135629679225362 3.0271717505137778 1.0136088284281295 1.0064171001318858 181.20296604763413 181.17559553734375 1.0067815625825391 
-35.223945535178792 -66.016854024136379 144.73383203704742 -35.223945535178800 -66.016854024136379 144.73383203704745 -85.237375563192714 -5.0482414110769275e-07 2.7085207592648133e-07 3.3372206892344759e-07 -85.211507448006074 2.1575732520040525e-11 -2.3935575743649906e-12 7.9286436305281427e-09 0.00010761017344134517 6.7754191685666855e-13 -7.9119988440433425e-13 9.5635425474708138e-13 0.00010721778511698931 -35.172917262399999 -66.029770167599992 144.99959110400002 155.12084301790807 0.0000000000000000 0.0000000000000000 0.0000000000000000 0.0000000000000000 3.0134576893536460 3.0269552713204790 1.0134976174774368 1.0065932278935767 177.15303769079463 177.10335580188305 1.0067262218986566 
-50.480878116035413 -66.577687131362310 141.92475649627747 -50.480878116035427 -66.577687131362325 141.92475649627747 -86.241870783971606 -1.4301674452224087e-06 5.9884865374286608e-07 1.2572864595829263e-06 0.0000000000000000 2.8775174951145569e-11 -2.3009788518990604e-12 8.3151298069239488e-09 0.00010866255837793492 1.0132819003047187e-12 -1.7872872308540642e-13 6.4781350668051434e-13 0.0000000000000000 -50.412828244765279 -66.590128188430739 142.20347059834828 136.07757377940416 0.0000000000000000 0.0000000000000000 0.0000000000000000 0.0000000000000000 3.0117148944823051 3.0234494675937085 1.0117345607971542 1.0060021133191359 175.04997815308707 175.05280736447955 1.0058499116507551 
-94.677076784474892 -158.78241748981219 77.048955083208639 -94.677076784474892 -158.78241748981216 77.048955083208639 -114.96356263913208 -1.8337704853971156e-06 -2.2841841191605477e-06 -3.4485663779362418e-06 -114.94402487180770 4.9621589823245493e-11 1.2143258620866957e-11 1.7241366445652769e-08 0.00011711918750152661 1.4940938327592656e-14 4.4074804421276710e-14 1.6173484869625671e-13 0.00011714004946370651 -94.559718839999974 -158.71675115199997 77.626866652000004 109.98746742214213 0.0000000000000000 0.0000000000000000 0.0000000000000000 0.0000000000000000 3.0131551242256189 3.0263502955953006 1.0131952066574876 1.0066080079575064 228.23356415092636 228.23356415105459 1.0065759454528256 
-89.794049606662881 -158.53185928386955 81.882734906031573 -89.794049606662853 -158.53185928386955 81.882734906031587 -109.94829486640272 -6.5200441501243814e-06 -5.4200901515583281e-06 -7.1735561301827373e-06 -108.20699150682570 4.7317349691211597e-11 1.2126077919560886e-11 1.6576287564795678e-08 0.00011714245616243364 -1.4510157278921179e-13 1.2212598720203329e-13 9.9352270476806056e-14 0.00011714957257579498 -89.682139475999989 -158.46640519600001 82.438353807199988 112.88451412247700 0.0000000000000000 0.0000000000000000 0.0000000000000000 0.0000000000000000 3.0132957037688035 3.0266299642802257 1.0133342925033075 1.0066080079575064 219.16311460935549 219.16311459673409 1.0066449345515704 
-102.83632751611530 -155.00650637673198 86.072690565807861 -102.83632751611535 -155.00650637673201 86.072690565807846 -109.45828453725244 -1.5234886015073678e-06 -1.1814105797632461e-06 -8.1583332884838345e-06 0.0000000000000000 5.3469400781991354e-11 1.1553369372307998e-11 1.5999796043608679e-08 0.00011701605667692993 3.4786712733643508e-14 -8.9975778929573838e-14 1.0408960105099325e-13 0.0000000000000000 -102.70986659571734 -154.94403864466588 86.608986019839278 111.02505284862640 0.0000000000000000 0.0000000000000000 0.0000000000000000 0.0000000000000000 3.0134809630338233 3.0270043495350865 1.0135234228260694 1.0064289409371256 219.84130314276837 219.84130315707438 1.0067392794507264 
-100.53095357630592 -167.24674982311643 83.120163078818607 -100.53095357630586 -167.24674982311635 83.120163078818635 -113.07077698869936 -9.6015823436512905e-07 -1.5195022871806490e-06 -7.7570234433656252e-06 0.0000000000000000 5.2380868739709825e-11 1.3471390669650420e-11 1.6406037195437762e-08 0.00011710242880575023 -1.1007579414141159e-13 1.4691417084095112e-13 -8.1961079044763098e-14 0.0000000000000000 -100.40706467681501 -167.17391327890167 83.670075146830683 105.53983917324770 0.0000000000000000 0.0000000000000000 0.0000000000000000 0.0000000000000000 3.0132056234754434 3.0264517156560848 1.0132461277144491 1.0064649891112212 224.66653872595177 224.66653872609885 1.0066013143153478 
-114.76383024046339 -99.821571542239724 96.082130447190067 -114.76383024046343 -99.821571542239752 96.082130447190067 -99.802437656587443 -1.3524601367107716e-06 -1.7932445125595122e-06 -5.8691099194109841e-06 -100.49354598730034 5.9089904657836148e-11 2.9048291549926830e-12 1.4622598576430336e-08 0.00011660243610249355 3.4069235480178192e-13 7.4153779237479883e-13 1.0442136364471949e-12 0.00011662798433291114 -114.62406224400000 -99.805851428000011 96.572263865600007 85.211636250682801 0.0000000000000000 0.0000000000000000 0.0000000000000000 0.0000000000000000 3.0134955173758082 3.0270230019576894 1.0135274661619591 1.0059142528318241 202.40971512326766 202.40969290691891 1.0067406564618651 
-111.22338016253829 -91.105979036853199 99.748041727439414 -111.22338016253828 -91.105979036853199 99.748041727439400 -96.793637765473022 -6.3228437953940990e-07 -7.7222059042451853e-08 -6.4948762162180004e-06 -96.356590823016333 5.7426776875479930e-11 1.5468182290589993e-12 1.4118210489577621e-08 0.00011597809485809130 8.3568512069799063e-14 2.0654354281080299e-16 1.1919185201786302e-12 0.00011565430254140069 -111.08756211600000 -91.097641973600034 100.22126851279998 99.535403830130534 0.0000000000000000 0.0000000000000000 0.0000000000000000 0.0000000000000000 3.0147179297102586 3.0294898086719728 1.0147719452985569 1.0063628849069954 199.61501402063885 199.61508523490039 1.0073596960987510 
-113.04219528366825 -97.669702135746761 107.95141726596633 -113.04219528366822 -97.669702135746761 107.95141726596631 -92.705653989924940 -5.4530493702184869e-07 -2.7279322417897175e-07 -5.4382076999432067e-06 -92.604431285137778 5.8280219192297089e-11 2.5726643038126440e-12 1.2989513908934214e-08 0.00011529797280828695 4.1255884936930043e-13 7.9336587323534428e-13 1.8443825518524784e-12 0.00011535668035759951 -112.90434805199999 -97.655804887999992 108.38681131359999 128.09762094244454 0.0000000000000000 0.0000000000000000 0.0000000000000000 0.0000000000000000 3.0135407772809164 3.0271304737052636 1.0135897439640351 1.0063364001191397 190.47499445267380 190.47503641924507 1.0067720142286201 
-107.28609165826057 -103.86034269815104 100.07846207364190 -107.28609165826052 -103.86034269815097 100.07846207364187 -96.025503460562561 -6.2719001153090778e-06 -5.4077133658996868e-07 -6.9356397925433306e-06 0.0000000000000000 5.5564003051400412e-11 3.5468572523456036e-12 1.4072745746496196e-08 0.00011655143968578046 6.6221800403092510e-14 7.6741170600344811e-13 9.4254366721350693e-14 0.0000000000000000 -107.15466629968294 -103.84120130723400 100.55016500991876 102.24201981555134 0.0000000000000000 0.0000000000000000 0.0000000000000000 0.0000000000000000 3.0106858896807851 3.0213659682182343 1.0106800224330099 1.0053038290751262 189.45634547882545 189.45635217689332 1.0053250040775972 
-26.942069901568885 -115.38852449012997 102.89473175319968 -26.942069901568868 -115.38852449012994 102.89473175319971 -54.486925486029243 6.3132466753275756e-06 4.5371279124140371e-06 -9.9038115637946944e-06 0.0000000000000000 2.0000472490335226e-08 8.6363330787426120e-09 2.0664924633495659e-08 0.00012305288415482670 3.7075618675089537e-12 1.0558168745780810e-11 2.0378374681871633e-11 0.0000000000000000 -26.889884864405381 -115.37486796036181 103.37575244326078 96.382960025775517 0.0000000000000000 0.0000000000000000 0.0000000000000000 0.0000000000000000 3.0197251925145658 3.0395480194356517 1.0198229034880228 1.0099180197397835 134.57367631649993 134.57468910832316 1.0098625823720540 
-109.70245537469602 -103.64072871808574 151.96504008409917 -109.70245537469602 -103.64072871808573 151.96504008409917 -89.041802809052570 1.9568197870762712e-07 5.9361932410446640e-07 1.4141363896129153e-07 -89.277502303819190 5.6705145787261380e-11 3.5050295998928505e-12 6.9336940633490940e-09 0.00011135959560254511 -1.1990815372326994e-14 -2.1689460216836770e-13 2.4829314951108218e-13 0.00011127590086918014 -109.56833416800004 -103.62177336400003 152.19744990400002 70.302883591683823 0.0000000000000000 0.0000000000000000 0.0000000000000000 0.0000000000000000 3.0125958905870225 3.0252226693280231 1.0126267966768343 1.0062913622244145 181.86119358785996 181.86144659051385 1.0062937223367763 