# For a description of the Tecplot format see the Tecplot User's guide.
#
Variables=x,y,z,s_u,s_v,s_w,s_p,mono_f_vel_u,mono_f_vel_v,mono_f_vel_w,const,u_nu,v_nu,w_nu,p_nu,x_nu,y_nu,z_nu,const,u_ref,v_ref,w_ref,vol_ref,x_ref,y_ref,z_ref,const,I1,I2,I3,J,p1,p2,p3
Zone f=fepoint, n=3174, e=16683, et=brick, c=black
-25.7562 -155.486 102.540 -25.756221771184638 -155.48570921469886 102.53995869507418 -84.051424428386127 -2.7555516706762022e-05 -6.4813606039382054e-05 -8.8469466599729594e-05 -48.576707316216101 5.1486290231217414e-10 2.0199841799239951e-10 7.0204361470871390e-06 0.00035704527902372845 3.2364284474279293e-10 2.4484150277951944e-09 -2.4528625566085835e-09 0.00074034752184722074 -24.903554063199991 -154.16086777200002 112.24023381839994 89.724962256112903 0.0000000000000000 0.0000000000000000 0.0000000000000000 0.0000000000000000 3.3166740530005878 3.6539183440292060 1.3375504429421676 1.1573571361269932 1237.2088011603491 1237.2013646582386 1.1564607771678195 
-38.603487144078272 -156.67502173997582 105.43708648907671 -38.603487144078265 -156.67502173997582 105.43708648907663 -51.954962767016092 4.2450083125832323e-05 6.5786863599718735e-07 -3.3134108167080990e-05 0.0000000000000000 -9.0275006948343060e-07 -4.0719757218923889e-07 6.3295634405425448e-06 -4.3850967570988617e-05 -1.0964824540335453e-09 4.8735772078173462e-10 -3.7242032464413741e-09 0.0000000000000000 -37.438273663334591 -155.10473791080037 114.93291110338620 89.036758072416930 0.0000000000000000 0.0000000000000000 0.0000000000000000 0.0000000000000000 3.3500578051462653 3.7310687351865295 1.3817667385424266 1.1706420851638595 1306.2359892487123 1306.2332588092129 1.1755257903829242 
-32.555120404477762 -149.08974776018775 110.98140350148311 -32.555120404477755 -149.08974776018783 110.98140350148319 -35.334071661688910 4.3751369768365926e-06 6.9053589933324323e-06 -4.1945947509989548e-05 0.0000000000000000 6.1137292450830216e-10 1.8456924877341407e-10 6.4267361068459650e-06 -0.00027003223875036937 2.6583985827202925e-10 8.3139708766430438e-10 1.5420664019628513e-09 0.0000000000000000 -31.542619574254449 -147.87907313389167 119.86135157363466 98.260374494724786 0.0000000000000000 0.0000000000000000 0.0000000000000000 0.0000000000000000 3.3255824768010362 3.6751811811416806 1.3500602745502450 1.1626895686758449 1215.2069301584124 1215.2131345949117 1.1618865510942846 
-29.590461392278929 -144.08878997205244 102.41179063425912 -29.590461392278936 -144.08878997205241 102.41179063425911 -38.516546285078832 -1.0649023251932824e-05 -3.2595248928386891e-05 1.3645434093069711e-05 0.0000000000000000 5.6928958769297832e-10 1.7096457582965741e-10 7.0294504048717962e-06 -0.00027677274147096899 -6.6598464098425446e-10 7.1023258845784523e-11 5.2489357264349006e-10 0.0000000000000000 -28.647655777685479 -142.96738158566356 112.12452093910819 112.69127588814607 0.0000000000000000 0.0000000000000000 0.0000000000000000 0.0000000000000000 3.3316670030139752 3.6887564888236675 1.3576378717514077 1.1635033789853986 1231.7897595405998 1231.8055303289914 1.1651798494530070 
-25.099079354572730 -202.59794650042278 59.880708914019841 -25.099079354572726 -202.59794650042275 59.880708914019841 -845.62306600396721 1.6890594374608104e-05 2.4732197144287613e-06 7.9920853364304531e-06 -853.58498885502127 5.0553247699092196e-10 3.3018343614799045e-10 1.0020728002047006e-05 -0.00098063762932800282 -6.0460681558946519e-11 -2.2419239290732439e-11 -1.8099558814228535e-11 -0.00097718076452211100 -24.261860196399997 -200.43215969199997 73.726546483199982 142.71380061529433 0.0000000000000000 0.0000000000000000 0.0000000000000000 0.0000000000000000 3.3126212160406392 3.6464757576433056 1.3342618825445121 1.1549198042869664 2582.9007203738288 2582.8486700029539 1.1551032481819652 
-24.992102025330993 -189.57236002905356 61.634472832846882 -24.992102025330997 -189.57236002905353 61.634472832846882 -824.42948972473891 3.7351324340493491e-05 -4.2250637513135608e-05 -1.2897427913536689e-05 -834.88878809153016 5.0401602336158657e-10 2.9474511720195551e-10 9.8973830340298702e-06 -0.00095906976969722686 -3.6830966165504700e-11 -1.8891825164568270e-11 -5.1588713864219977e-12 -0.00093357214547670742 -24.157397762799999 -187.63907770800003 75.309882232799993 165.73632395326644 0.0000000000000000 0.0000000000000000 0.0000000000000000 0.0000000000000000 3.3125340698218215 3.6461947114779987 1.3340631675749173 1.1549198042869682 2547.0920542097551 2547.0233652433667 1.1550141394275428 
-35.978522769027009 -197.48586598258717 68.597972235870884 -35.978522769027002 -197.48586598258706 68.597972235870856 -804.99789519030776 2.4504382045896293e-05 -3.0542497746448157e-05 -6.1941120207849827e-05 0.0000000000000000 6.5997060594291668e-10 3.1627633845232594e-10 9.4076292214140267e-06 -0.0010218230949709138 -1.1229614560276061e-10 -3.0646176046115198e-11 -1.0165688307542014e-11 0.0000000000000000 -34.885542273181727 -195.41132893576267 81.596679120775832 139.46796289390394 0.0000000000000000 0.0000000000000000 0.0000000000000000 0.0000000000000000 3.3103450283846469 3.6416943583257475 1.3317546732018977 1.1530409115323916 2505.9941744874363 2506.1973042958411 1.1540151177022819 
-19.528871902906641 -196.58821411645508 68.394472291693930 -19.528871902906641 -196.58821411645502 68.394472291693958 -839.04344455219996 1.9622603705579416e-05 -1.9257144305798592e-05 -3.0087411508617484e-05 0.0000000000000000 4.2646489117892372e-10 3.1384894683128550e-10 9.4219416837404424e-06 -0.00095540834126692361 -2.9847435534790372e-11 3.9964024870974656e-12 -2.5971090663858347e-12 0.0000000000000000 -18.822600960987238 -194.52970000168264 81.412954998504986 111.95285379220412 0.0000000000000000 0.0000000000000000 0.0000000000000000 0.0000000000000000 3.3129003844611296 3.6469955121801303 1.3345009984510598 1.1549198042869671 2582.9407876790779 2582.9273966291744 1.1552078017731164 
-23.462732889175538 -103.60671971851221 26.111170460331564 -23.462732889175534 -103.60671971851220 26.111170460331557 -656.79507468608517 -2.9951269133921307e-05 3.4665035423911635e-05 -4.7924572250069559e-05 -669.26276746135147 4.8230383575820223e-10 6.0807359147929687e-11 1.2395792534647400e-05 -0.0040733959511506795 -1.3650261094999547e-10 2.3310086794744225e-10 -2.7218047089060733e-10 -0.0040913478392097585 -22.663982073999996 -103.20790935200000 43.238681550399988 69.202643319072678 0.0000000000000000 0.0000000000000000 0.0000000000000000 0.0000000000000000 3.3121459058014016 3.6454451194363395 1.3337044622159806 1.1549198042869666 2255.6197930940966 2257.0467409091002 1.1548621701777402 
-31.130674680022395 -111.30940899470330 30.264897963584115 -31.130674680022384 -111.30940899470330 30.264897963584119 -630.90931209252096 5.8051029207249375e-06 5.2383894485367323e-05 -6.8914824160475215e-05 -626.42697898856272 5.9115431993994605e-10 8.1767259629828004e-11 1.2103654373873951e-05 -0.0039437380020103932 -1.2816534518399682e-10 3.9769068950547795e-10 -2.9173752437426145e-10 -0.0038484042360761674 -30.151660686400003 -110.77310694400001 46.988755992800002 74.715282964229786 0.0000000000000000 0.0000000000000000 0.0000000000000000 0.0000000000000000 3.3127674369264928 3.6466994619055844 1.3343364335830208 1.1549198042869666 2204.9774716003799 2232.3989448121238 1.1551369685106290 
-19.439315912942071 -103.97238576276744 33.609593845126099 -19.439315912942075 -103.97238576276747 33.609593845126092 -611.68341679454772 -3.7623985666314019e-05 2.6387640508795230e-05 -7.3768252168284100e-05 -614.85955396933241 4.2519257559270324e-10 6.1793015149191888e-11 1.1868416677884854e-05 -0.0038177443707310865 -2.2421363520945224e-10 2.7805445103693253e-10 -3.6790585229331099e-10 -0.0038258872971485692 -18.735150314000002 -103.56704831999998 50.008419303199993 79.719497061372692 0.0000000000000000 0.0000000000000000 0.0000000000000000 0.0000000000000000 3.3121776275922987 3.6454976784246260 1.3337247468531288 1.1549198042869679 2174.3515865873737 2190.9162681499656 1.1548700886545007 
-26.358710657679371 -98.800611339563034 34.688233056819499 -26.358710657679360 -98.800611339563090 34.688233056819506 -620.96871850279842 6.5216296668932244e-06 8.5275783850626526e-06 -0.00011667041938116132 0.0000000000000000 5.2341461720395444e-10 4.7722714668907429e-11 1.1792554289513648e-05 -0.0040180953471886226 -2.0481218628929902e-10 2.1295724503806658e-10 -3.6464723018707893e-10 0.0000000000000000 -25.491879232152165 -98.487589184379729 50.982237960580505 72.292163684038698 0.0000000000000000 0.0000000000000000 0.0000000000000000 0.0000000000000000 3.3122833989849876 3.6457904972179600 1.3339153636636678 1.1549198042869677 2189.0902674262984 2139.5297489100462 1.1549513553070450 
-26.199638904721539 -104.62849019441430 98.660246076092406 -26.199638904721532 -104.62849019441424 98.660246076092363 -29.433404186325124 8.3904086107688788e-06 4.6684861251290305e-05 1.7282760989527169e-05 0.0000000000000000 -2.6217159611714624e-07 6.9148894114877263e-07 5.9907866624001964e-06 -0.00095174990437352539 1.8648411273475678e-09 8.0965078994594447e-10 -3.8566219324463775e-09 0.0000000000000000 -25.283559732051039 -104.23282252886388 108.75695162467670 96.378087069502698 0.0000000000000000 0.0000000000000000 0.0000000000000000 0.0000000000000000 3.3274605641924344 3.6789749748536775 1.3519797834481011 1.1645587391340717 1194.4721441731383 1194.3847073416950 1.1627278547088880 
-26.847866916724151 -118.66321305604257 100.74060419055850 -26.847866916724143 -118.66321305604252 100.74060419055846 -11.697827592030146 -4.1384829692896325e-06 -7.8357660131402482e-06 1.5067969626994363e-06 0.0000000000000000 -1.7123703914029192e-07 7.5016720424392471e-07 5.3537821298423871e-06 -0.00098743413434215451 2.3411739670686392e-10 -1.2501343724389618e-09 -2.5041229068021067e-09 0.0000000000000000 -25.913646985361510 -118.01095136745833 110.66456878241424 88.846747377876298 0.0000000000000000 0.0000000000000000 0.0000000000000000 0.0000000000000000 3.3498633662511286 3.7271994058627165 1.3779273270757744 1.1701714403085615 1246.8941280310612 1246.9402947151023 1.1738705131666407 
-37.482932166239465 -113.20528403860389 102.25884879121286 -37.482932166239472 -113.20528403860395 102.25884879121290 -15.605649253166806 -2.3327512252953440e-05 -1.4555782002044591e-05 -6.5478409788847119e-06 0.0000000000000000 -1.0714710847976392e-06 2.5444521463933335e-06 4.2216069200547667e-06 -0.00041407635743506379 -9.8530560000275929e-10 -1.2731058131095203e-09 -4.7619677333880489e-10 0.0000000000000000 -36.236867317722961 -112.72601430119678 112.03758904139967 95.996160021407249 0.0000000000000000 0.0000000000000000 0.0000000000000000 0.0000000000000000 3.3468500367558400 3.7211004303449218 1.3748621837180151 1.1716596138441042 1251.6089857484380 1251.5404052004376 1.1725437809554251 
-34.514743697328221 -105.42495943401923 95.115771817678322 -34.514743697328207 -105.42495943401916 95.115771817678279 -23.414006080004263 -1.2385156023685211e-05 4.1840890827473154e-05 1.9367199827854672e-05 0.0000000000000000 -8.8620397049858020e-07 2.7994157267849572e-06 4.3640060284639313e-06 -0.00093199380230624921 1.0627249744318493e-09 6.1582007305997130e-10 -1.0856787132089944e-09 0.0000000000000000 -33.380789828628046 -105.09637623893835 105.63342596379557 85.433794965156210 0.0000000000000000 0.0000000000000000 0.0000000000000000 0.0000000000000000 3.3490151359057920 3.7248793361174850 1.3764260663540879 1.1701450244236435 1234.0426003551938 1234.0596333059732 1.1732112179311900 
-115.17418826389120 -162.10650104683103 116.30130287143892 -115.17418826389120 -162.10650104683103 116.30130287143895 -230.50592555775029 7.5268888023032722e-06 -2.1872949287030696e-05 -3.6695630197488046e-05 -228.60858073929469 1.7841612354185801e-09 2.1999246868631414e-10 6.0525792555665694e-06 -0.0015548199704443178 -1.6126154348401068e-11 4.9271262726153322e-11 -3.2652136240096135e-10 -0.0015068206381690338 -112.21942232800005 -160.66347960400000 124.66427103520003 147.55923210393107 0.0000000000000000 0.0000000000000000 0.0000000000000000 0.0000000000000000 3.3182792415194347 3.6597674946795569 1.3419773974502391 1.1549198042869679 1531.5863190429443 1531.8224461767734 1.1584677261685863 
-102.18195312803844 -159.49102459561024 107.35221384194740 -102.18195312803844 -159.49102459561021 107.35221384194743 -251.60015017024884 -3.2686921357893827e-05 -3.3217597393877500e-05 -7.3997370469171294e-05 0.0000000000000000 1.5997372038167867e-09 2.1289414675607077e-10 6.6819827075903512e-06 -0.0017379160670199863 -1.2243342540922935e-10 4.3211553724765235e-10 -4.9863268829652477e-10 0.0000000000000000 -99.532617471171264 -158.09468895943013 116.58484116745363 117.70414803503969 0.0000000000000000 0.0000000000000000 0.0000000000000000 0.0000000000000000 3.2993211197827561 3.6127358343915046 1.3134780916059861 1.1479453989972350 1499.2249022837907 1500.1875450254399 1.1460420676017902 
-107.10769591318827 -150.08339079690032 112.12272445147595 -107.10769591318829 -150.08339079690037 112.12272445147589 -206.50000637147437 -2.4327224350415984e-05 -4.7367576627955571e-05 -1.9065534681999547e-05 0.0000000000000000 1.6696497240342725e-09 1.8727153161535171e-10 6.3464652164668678e-06 -0.0017251561351298418 2.1203307947921599e-10 5.6344466652950431e-11 -5.0388840605508814e-10 0.0000000000000000 -104.34256255272837 -148.85497981259945 120.89176065121424 119.29379793442074 0.0000000000000000 0.0000000000000000 0.0000000000000000 0.0000000000000000 3.2990396132697550 3.6144001994044612 1.3155782989312070 1.1493481292841250 1423.2345171286515 1426.6544482665452 1.1469542690647561 
-103.20376684173795 -163.75551070045350 116.19446491654212 -103.20376684173790 -163.75551070045358 116.19446491654209 -229.37357246727927 -1.3608441781547201e-05 -5.1688512982832228e-05 -3.8208761890567838e-05 0.0000000000000000 1.6142340519831320e-09 2.2449597736340363e-10 6.0600933302623616e-06 -0.0014909254262515756 3.5244743153136652e-12 6.0773061429450529e-11 -2.4885747120044318e-10 0.0000000000000000 -100.53040969477119 -162.28305471776312 124.56781543385799 141.51484144144280 0.0000000000000000 0.0000000000000000 0.0000000000000000 0.0000000000000000 3.3004869721978407 3.6191990425792544 1.3190011940953874 1.1491683968476034 1469.2710035240939 1453.1185627394348 1.1484588440390437 
-80.541115741512201 -150.02480319361780 77.294652483644910 -80.541115741512186 -150.02480319361780 77.294652483644896 -306.15640358456460 -9.1037137613913364e-05 -6.4637826093686619e-05 -3.2948101760026644e-05 -310.76964100358197 1.2925349401893269e-09 1.8713430804950804e-10 8.7959780721291736e-06 -0.0019062951248605673 -2.7363589602483481e-11 1.8224712126581072e-10 -5.7407196780659744e-11 -0.0018625727034502413 -78.400527573600002 -148.79743798799998 89.448228916799977 108.06316173413846 0.0000000000000000 0.0000000000000000 0.0000000000000000 0.0000000000000000 3.3231311237607764 3.6682684115627500 1.3455750996268527 1.1549198042869668 1686.2026953896541 1685.5831174224552 1.1600579628592109 
-82.332054049641513 -164.01167274734962 75.439114902924928 -82.332054049641528 -164.01167274734962 75.439114902924956 -459.61035332170815 -4.6813164455157182e-05 -0.00012779467091810821 -6.2033375678114872e-05 -463.74866709483643 1.3179652647021811e-09 2.2518831244155990e-10 8.9264809410849466e-06 -0.0018155698676424236 3.0571896246580801e-10 1.4710735092380718e-10 1.8059753450379462e-10 -0.0019201084727599462 -80.149363288800018 -162.53464431600008 87.773009718400019 109.57810873427631 0.0000000000000000 0.0000000000000000 0.0000000000000000 0.0000000000000000 3.3244724062944355 3.6707711215302781 1.3467129304095311 1.1549198042869679 1950.1477269680365 1956.9864817955529 1.1605704400695254 
-86.577985613801829 -161.61874852045955 83.414318869104378 -86.577985613801815 -161.61874852045949 83.414318869104406 -380.92668340324707 -2.5781773357643745e-05 -8.0019081744525842e-05 -0.00012444623886355909 0.0000000000000000 1.3782406049767104e-09 2.1868062916041706e-10 8.3655723521758335e-06 -0.0018712832284132051 -2.4130571707109064e-10 -1.7032360604766671e-10 -1.7862639167409326e-10 0.0000000000000000 -84.295478612813938 -160.18443337667750 94.973195224810283 106.11323630727971 0.0000000000000000 0.0000000000000000 0.0000000000000000 0.0000000000000000 3.2841667523927347 3.5886033236486692 1.3048460894516432 1.1445722153790043 1675.5238774871391 1675.7492542420364 1.1421706154969788 
-88.808965062423766 -152.66463486473762 80.823872834905458 -88.808965062423781 -152.66463486473768 80.823872834905430 -351.30408070903746 -3.5346958081496446e-05 -0.00010621604494636363 -0.00011458427763714637 0.0000000000000000 1.4099094947095379e-09 1.9430235198569790e-10 8.5477624800489576e-06 -0.0021455193661257610 -6.2181189392054069e-10 4.2603084685926319e-10 -1.3477285352964058e-11 0.0000000000000000 -86.474010682800568 -151.39014911596544 92.634484883397832 94.367740677547317 0.0000000000000000 0.0000000000000000 0.0000000000000000 0.0000000000000000 3.2977036423239046 3.6163598632874048 1.3190790167834612 1.1471601911073888 1664.9825969962687 1664.7648883386837 1.1485087676802868 
-26.898169930136330 -133.36081090971516 131.78648317915602 -26.898169930136323 -133.36081090971516 131.78648317915602 -89.488401534818919 1.8697965352241426e-05 -2.0798070827974853e-05 9.7143768275802976e-05 -102.78337021564560 5.3107016007025731e-10 1.4176215756833699e-10 4.9634822651967161e-06 -0.00084524055865884665 6.9608685484376445e-11 -3.9764146469625931e-12 5.7205804324133354e-10 -0.00090366195835134787 -26.018656529999991 -132.43089511199997 138.64462455200004 49.421240865332216 0.0000000000000000 0.0000000000000000 0.0000000000000000 0.0000000000000000 3.3112512907950133 3.6431814703791612 1.3323231052496582 1.1565360581236992 1263.2252674397546 1266.0605099292645 1.1542699625573252 
-33.530886721272388 -134.91446151489373 130.63268433117500 -33.530886721272388 -134.91446151489376 130.63268433117494 -77.140681954327675 -2.8009832229006534e-06 1.5488023431807806e-05 2.8049986493051796e-05 -1.6049486396479964 6.2522684252108718e-10 1.4600765041450359e-10 5.0446307611196062e-06 -0.00084562269476628658 -1.1392945640779453e-10 -1.6919030958239815e-10 6.5682292063153740e-10 -0.00065303525984628473 -32.495446914399992 -133.95681332000001 137.60295016000006 48.530522504776933 0.0000000000000000 0.0000000000000000 0.0000000000000000 0.0000000000000000 3.3277611185528126 3.6802836182287701 1.3530416374381458 1.1625101902428576 1297.1512874497157 1296.7703094257240 1.1631978053608991 
-29.355485498241332 -137.44153309778787 133.63114463592692 -29.355485498241322 -137.44153309778787 133.63114463592689 -86.900896167279825 2.0124795766334462e-05 3.2276455382961029e-05 2.7017314714610725e-05 -97.275144197777976 5.6595358954858455e-10 1.5286838461747720e-10 4.8337443416812667e-06 -0.0010556426588122381 2.3180214547069496e-10 -4.2370075641113378e-10 1.3549253622477773e-12 -0.0011835887493758957 -28.418203856399998 -136.43877710800004 140.31002455199999 44.353383947079159 0.0000000000000000 0.0000000000000000 0.0000000000000000 0.0000000000000000 3.3127907361066913 3.6463710568384631 1.3339669340651847 1.1577590692954134 1263.5877642056948 1263.4536299680399 1.1549800737490865 
-27.665927865944418 -130.37841771465935 137.55031344658067 -27.665927865944422 -130.37841771465943 137.55031344658070 -107.77934930442242 1.7357012798984705e-05 2.1596361126192668e-05 9.4502191271723138e-06 0.0000000000000000 5.4197166199365654e-10 1.3366641127277035e-10 4.5581030718722113e-06 -0.00098547077114808225 -6.3282499291110476e-11 -1.0972847707307909e-10 1.7251076577301174e-10 0.0000000000000000 -26.768365491316434 -129.50173712462359 143.84833436668455 49.139845408488213 0.0000000000000000 0.0000000000000000 0.0000000000000000 0.0000000000000000 3.3146793249818192 3.6517157985664421 1.3374863041618532 1.1576725144721760 1320.5447432668191 1320.6245976221942 1.1564945649397247 
-41.286526576112202 -65.189134038651375 148.74305400854354 -41.286526576112202 -65.189134038651360 148.74305400854354 -187.75678223756503 -1.4117912561610322e-06 -9.1102061405792167e-06 3.3554292876846138e-05 -191.51497078122415 7.3531566946449800e-10 -4.3745007616280418e-11 3.7709000899610597e-06 -0.0013530155673574028 -5.3301616799014585e-11 3.2741400685157292e-12 5.4008731246549434e-11 -0.0013553805706891557 -40.068761925200000 -65.476070995999990 153.95338104800004 156.95717166164070 0.0000000000000000 0.0000000000000000 0.0000000000000000 0.0000000000000000 3.3109877817100970 3.6432379058412105 1.3326668591714337 1.1537641267254213 1433.7357183792253 1433.7371960683524 1.1544143492865968 
-53.942036879705938 -59.263059903614582 143.54870870565156 -53.942036879705938 -59.263059903614582 143.54870870565153 -188.39275603367633 -1.8962677236569849e-05 -6.2569631259057685e-07 1.4993933943996604e-05 -191.16415645233613 9.1496474285968067e-10 -5.9870552959750967e-11 4.1362265399413900e-06 -0.0013846612118347673 -1.8001782760451203e-11 1.1696952084954314e-11 -2.9398383038090239e-11 -0.0013650894757613143 -52.426757905599978 -59.655776269200025 149.26381449600007 118.05125250056595 0.0000000000000000 0.0000000000000000 0.0000000000000000 0.0000000000000000 3.3134728803553890 3.6486411899435889 1.3355962872516967 1.1537857397692048 1443.0196569560251 1443.0128692937619 1.1556832549446325 
-36.272816208093914 -65.752896269505655 138.82548993881889 -36.272816208093907 -65.752896269505655 138.82548993881889 -173.10761527189101 4.9448565035746121e-06 -4.4937519363958450e-06 -2.5058456263014289e-06 -172.20867188946252 6.6414693189464903e-10 -4.2212233708482920e-11 4.4684178881482231e-06 -0.0013225254322195355 -5.4882205100725527e-11 5.2076596509182357e-11 -4.9503116113858083e-11 -0.0013043908901280291 -35.172917262399999 -66.029770167599992 144.99959110400002 155.12084301790807 0.0000000000000000 0.0000000000000000 0.0000000000000000 0.0000000000000000 3.3125421505621659 3.6461047832847817 1.3339629185534998 1.1545692014374933 1413.0808569493306 1413.0820266526719 1.1549732294516875 
-51.879622584230361 -66.323438369086077 135.72839871433078 -51.879622584230361 -66.323438369086048 135.72839871433084 -176.98168287913197 -1.4216927688904606e-05 1.3767248479657132e-05 6.8377358668474811e-06 0.0000000000000000 8.8568571920966122e-10 -4.0661474187686502e-11 4.6862411657855318e-06 -0.0013850521466189181 -3.6285188468175637e-11 -1.3326356661312223e-12 -3.0275008000012451e-11 0.0000000000000000 -50.412828244765279 -66.590128188430739 142.20347059834828 136.07757377940416 0.0000000000000000 0.0000000000000000 0.0000000000000000 0.0000000000000000 3.3042918441470501 3.6273697753743623 1.3233806481518082 1.1517063944544945 1390.1754568629267 1390.1728481533721 1.1503783167079538 
-97.089333744982355 -160.12439229309098 64.200854395256442 -97.089333744982369 -160.12439229309095 64.200854395256442 -598.30188398479686 -3.2897452108556322e-05 -3.1835606028076283e-05 -6.1038384823365008e-05 -598.45272874835439 1.5274399245424066e-09 2.1460122567873441e-10 9.7168854047424702e-06 -0.0021835197124993552 -3.9038005988828611e-10 4.3132867178572083e-10 -1.7534785633880532e-10 -0.0020757985886709902 -94.559718839999974 -158.71675115199997 77.626866652000004 109.98746742214213 0.0000000000000000 0.0000000000000000 0.0000000000000000 0.0000000000000000 3.3117389949316807 3.6446162886369797 1.3332838752820204 1.1549198042869677 2150.3395616196181 2150.3597548927200 1.1546764585328053 
-92.094328406285030 -159.86949649067887 69.530243674075678 -92.094328406285044 -159.86949649067887 69.530243674075663 -526.35949679127248 -8.5989998838701128e-05 -7.8913242592695100e-05 -0.00010395760060144277 -504.75751546966080 1.4565366412977456e-09 2.1392665416897214e-10 9.3420611015915256e-06 -0.0020200849856167736 -3.5745784106653858e-10 5.4310944931167730e-10 -4.0036432071074144e-11 -0.0019436095346735431 -89.682139475999989 -158.46640519600001 82.438353807199988 112.88451412247700 0.0000000000000000 0.0000000000000000 0.0000000000000000 0.0000000000000000 3.3140966670705065 3.6490088304142230 1.3353005237857520 1.1549198042869668 2022.8262406104880 2022.5189120401110 1.1555449062761904 
-105.43569338629315 -156.28311361940180 74.149797230592256 -105.43569338629320 -156.28311361940180 74.149797230592242 -512.47716542209969 -1.8501445547372676e-05 -8.6130906073857795e-06 -0.00012947367242213678 0.0000000000000000 1.6459153762138355e-09 2.0414159251913591e-10 9.0171606679234628e-06 -0.0024351700368579229 -3.1756987809795107e-10 4.5211347727074393e-10 -2.4861248074035986e-10 0.0000000000000000 -102.70986659571734 -154.94403864466588 86.608986019839278 111.02505284862640 0.0000000000000000 0.0000000000000000 0.0000000000000000 0.0000000000000000 3.3138214022064809 3.6491118913588738 1.3357013265977720 1.1529400916033496 2014.8189314479309 2014.7692911589543 1.1557432943374415 
-103.07745233669053 -168.73525687788148 70.894545872165608 -103.07745233669051 -168.73525687788148 70.894545872165565 -562.57839819295850 -7.8894418135094092e-06 -1.9431451818813619e-05 -0.00012542801146369793 0.0000000000000000 1.6124483692703249e-09 2.3803403692568281e-10 9.2461075986705038e-06 -0.0020031315410230428 -2.7719422533120746e-10 2.2042607449185240e-10 -6.7786387500134913e-11 0.0000000000000000 -100.40706467681501 -167.17391327890167 83.670075146830683 105.53983917324770 0.0000000000000000 0.0000000000000000 0.0000000000000000 0.0000000000000000 3.3117422801681182 3.6446107028824750 1.3332719280013705 1.1533376150383254 2079.6946665447399 2079.9408592910531 1.1546757482769263 
-117.63671902386525 -100.14283199191973 85.185509146752906 -117.63671902386524 -100.14283199191973 85.185509146752892 -353.39788861294437 -1.8877993169982150e-05 -2.7255115465932665e-05 -8.2830628478111748e-05 -363.29237618187750 1.8191137238821044e-09 5.1370241394010918e-11 8.2410017689937831e-06 -0.0039561727829581939 -1.0191983113760935e-10 -8.4665844158596368e-11 -5.2830467335882534e-10 -0.0039531290722491803 -114.62406224400000 -99.805851428000011 96.572263865600007 85.211636250682801 0.0000000000000000 0.0000000000000000 0.0000000000000000 0.0000000000000000 3.3143974564642540 3.6503631782847852 1.3363185207615396 1.1488025086595171 1729.8251937667699 1730.2507116530930 1.1559633815346597 
-114.01507892303104 -91.276357486327910 89.227287835516947 -114.01507892303106 -91.276357486327910 89.227287835516933 -311.37019199054754 -6.4531660627269392e-06 1.6805124277112416e-06 -8.9127480270433411e-05 -307.71418674943118 1.7677063979260053e-09 2.7253532763893414e-11 7.9567371393807190e-06 -0.0038086877053326346 4.3134994959070236e-11 2.6266768298376154e-10 -6.8267093733170304e-10 -0.0036468737000727937 -111.08756211600000 -91.097641973600034 100.22126851279998 99.535403830130534 0.0000000000000000 0.0000000000000000 0.0000000000000000 0.0000000000000000 3.3232991189101164 3.6688145329135087 1.3459598326128308 1.1525557848427901 1686.4654909537203 1686.4346745468899 1.1601732588795186 
-115.87560332916765 -97.953709999325298 98.271758880460268 -115.87560332916767 -97.953709999325312 98.271758880460297 -244.18966903233303 -1.1110615999633052e-05 -9.7983746933450699e-06 -9.9718798521745684e-05 -245.33096423495593 1.7941203800386776e-09 4.5414561000711728e-11 7.3206253325963644e-06 -0.0033547149291270890 -1.2788286236572034e-10 -1.9583443342944429e-10 -7.0186031413373671e-10 -0.0033217339424271223 -112.90434805199999 -97.655804887999992 108.38681131359999 128.09762094244454 0.0000000000000000 0.0000000000000000 0.0000000000000000 0.0000000000000000 3.3136117843618318 3.6495975241017935 1.3364368406128688 1.1533426390594046 1548.4764770716904 1544.1377856419485 1.1560280427576166 
-109.98750004978153 -104.25152127101070 89.591586317264259 -109.98750004978147 -104.25152127101077 89.591586317264216 -301.47254283625284 -8.8315968219309724e-05 -1.1840608517476741e-05 -9.5685037112542548e-05 0.0000000000000000 1.7105383498527971e-09 6.2555738367109370e-11 7.9311154586036992e-06 -0.0038844250600923139 2.0647404308203282e-10 -2.5300433623347232e-10 -4.6229324126486620e-10 0.0000000000000000 -107.15466629968294 -103.84120130723400 100.55016500991876 102.24201981555134 0.0000000000000000 0.0000000000000000 0.0000000000000000 0.0000000000000000 3.2971388788391627 3.6092622300365451 1.3122922564113653 1.1451660733331439 1575.1992404721848 1575.8581375236097 1.1455203946679411 
-27.796248016628542 -115.98107300644284 92.600458185927309 -27.796248016628535 -115.98107300644280 92.600458185927295 -24.345016444883477 3.1288176590500966e-05 2.9449432440363501e-06 -3.7413663810414360e-05 0.0000000000000000 -1.2997978512749015e-07 1.0858854372837819e-06 5.8561896776256851e-06 -0.0017729671773175173 6.0942196978371413e-10 -1.7201537412888041e-09 -1.5326500493826150e-09 0.0000000000000000 -26.889884864405381 -115.37486796036181 103.37575244326078 96.382960025775517 0.0000000000000000 0.0000000000000000 0.0000000000000000 0.0000000000000000 3.3430174211342902 3.7125579002248696 1.3701020993969160 1.1691765435361705 1229.2955628213247 1229.2560789436127 1.1705098055810734 
-112.45927610678841 -104.02810539261607 146.79811675498257 -112.45927610678838 -104.02810539261606 146.79811675498257 -176.13280831714505 -1.1150868054745786e-06 -3.3139427782125673e-06 -2.0892398157489345e-07 -176.72920077149561 1.7456200651633227e-09 6.1949778640268960e-11 3.9076905586910016e-06 -0.0012635275276437826 3.1401808416367853e-12 6.2547838447233235e-12 1.7631437885192327e-11 -0.0012413144970577496 -109.56833416800004 -103.62177336400003 152.19744990400002 70.302883591683823 0.0000000000000000 0.0000000000000000 0.0000000000000000 0.0000000000000000 3.3094715944624991 3.6390837210476543 1.3299796230789942 1.1534537303978512 1407.1896596746858 1407.1892797140385 1.1532492597340052 