# For a description of the Tecplot format see the Tecplot User's guide.
#
Variables=x,y,z,s_u,s_v,s_w,s_p,mono_f_vel_u,mono_f_vel_v,mono_f_vel_w,const,u_nu,v_nu,w_nu,p_nu,x_nu,y_nu,z_nu,const,u_ref,v_ref,w_ref,vol_ref,x_ref,y_ref,z_ref,const,I1,I2,I3,J,p1,p2,p3
Zone f=fepoint, n=3174, e=16683, et=brick, c=black
-25.2496 -154.700 108.486 -25.249556401079708 -154.70031945669476 108.48601077703482 -236.40723132152641 -2.0477222016851163e-05 -8.2834176362834276e-05 -8.6461610655007542e-05 -227.82840485726240 3.0445784782173746e-12 1.1887157924661551e-12 3.9760802650334874e-08 -0.0083415663494791226 5.5613640550622543e-11 2.8910015247741737e-10 -7.0238197995849132e-11 -0.0082766068781591588 -24.903554063199991 -154.16086777200002 112.24023381839994 89.724962256112903 0.0000000000000000 0.0000000000000000 0.0000000000000000 0.0000000000000000 3.1239853242722897 3.2505192361285329 1.1265153393023319 1.0630721498318527 655.50405971443774 655.49107455955755 1.0613356698094984 
-37.946492722652359 -155.91414949269344 111.20279139171510 -37.946492722652359 -155.91414949269344 111.20279139171502 -198.76474057642184 6.6986860516963281e-05 -6.9629646228921361e-05 -4.4157610666608322e-05 0.0000000000000000 2.8272633461471683e-09 3.8294529958944368e-07 -6.5069044300074521e-07 -0.0086209728092488148 -7.1445551763054758e-10 6.3816910500628081e-10 -4.5302572343239748e-10 0.0000000000000000 -37.438273663334591 -155.10473791080037 114.93291110338620 89.036758072416930 0.0000000000000000 0.0000000000000000 0.0000000000000000 0.0000000000000000 3.1693794692636748 3.3466246648738998 1.1773334961002140 1.0804643524942317 680.93450478724446 680.93092470291072 1.0851023243624625 
-31.953480277763976 -148.37203813764501 116.42461341572064 -31.953480277763990 -148.37203813764509 116.42461341572063 -173.02646105272424 2.1283850181953175e-05 -4.9907408614354899e-05 -1.4923405082407672e-05 0.0000000000000000 3.6155384242064774e-12 1.1050049764094185e-12 3.6398333236320468e-08 -0.0084506045820892453 -1.5040046929607937e-10 2.2233351831520528e-11 8.9272445719081873e-11 0.0000000000000000 -31.542619574254449 -147.87907313389167 119.86135157363466 98.260374494724786 0.0000000000000000 0.0000000000000000 0.0000000000000000 0.0000000000000000 3.1418530766661945 3.2886384281137291 1.1468131288773864 1.0727689014242194 597.66838650064301 597.73442469806332 1.0708320425983471 
-29.030234997891295 -143.42399897682546 108.36547746441880 -29.030234997891288 -143.42399897682537 108.36547746441876 -171.51750749174246 2.4415300293727529e-05 -6.3628816003195808e-05 -4.1518808132840971e-05 0.0000000000000000 3.3682362454712234e-12 1.0075273948473296e-12 3.9811862251326602e-08 -0.0085525165538335411 -8.9239960900957815e-10 1.8979474166682395e-11 -2.1997004734350789e-10 0.0000000000000000 -28.647655777685479 -142.96738158566356 112.12452093910819 112.69127588814607 0.0000000000000000 0.0000000000000000 0.0000000000000000 0.0000000000000000 3.1489769906442437 3.3038880990940949 1.1549748004759834 1.0731176767333330 603.71834368345105 603.70825932230025 1.0746980857117163 
-24.601593697895133 -201.31402925377444 68.367898221335665 -24.601593697895137 -201.31402925377441 68.367898221335665 -641.76872219760162 3.3982609502022945e-06 2.4486851176260297e-07 2.3014240895378140e-06 -644.88328477844777 2.9916763510939855e-12 1.9498846981491624e-12 5.6753203026005408e-08 -0.0081443113532351352 4.1216762169008663e-12 7.5805123016524309e-13 8.2095909501073074e-13 -0.0081445191234275748 -24.261860196399997 -200.43215969199997 73.726546483199982 142.71380061529433 0.0000000000000000 0.0000000000000000 0.0000000000000000 0.0000000000000000 3.1196889280174931 3.2426155843946272 1.1229516066893035 1.0596185557190561 1367.0452071082045 1367.0450794975443 1.0596943154877774 
-24.496110749781195 -188.42627561068522 70.017193477411041 -24.496110749781195 -188.42627561068522 70.017193477411055 -631.64980135606220 1.3278673773737826e-05 -1.8204582815781622e-05 -5.6820306696850143e-06 -635.19753449629843 2.9802410539403468e-12 1.7398305018900828e-12 5.6054629382629186e-08 -0.0081468313221056948 2.2663155246973785e-12 2.9358578421512458e-12 1.7046331075904556e-12 -0.0081477789949805802 -24.157397762799999 -187.63907770800003 75.309882232799993 165.73632395326644 0.0000000000000000 0.0000000000000000 0.0000000000000000 0.0000000000000000 3.1197020260553208 3.2426199089896999 1.1229423466886537 1.0596185557190565 1350.1520267323142 1350.1519945272958 1.0596889031532319 
-35.329060660565304 -196.25604323047210 76.565889346791522 -35.329060660565318 -196.25604323047199 76.565889346791536 -626.10608964165408 5.7139630205435554e-06 -1.4237021381103371e-05 -2.8415237231092384e-05 0.0000000000000000 3.9065278789607297e-12 1.8808288260174777e-12 5.3280867717830915e-08 -0.0081426124179941259 3.6865911367279321e-12 7.0390920218849994e-12 -7.9969083383571800e-13 0.0000000000000000 -34.885542273181727 -195.41132893576267 81.596679120775832 139.46796289390394 0.0000000000000000 0.0000000000000000 0.0000000000000000 0.0000000000000000 3.1186294770737955 3.2404620584098569 1.1218575663085089 1.0585340393771008 1338.4697078871516 1338.4701263919417 1.0591769782900495 
-19.109197245556540 -195.36789004570778 76.374511539927340 -19.109197245556526 -195.36789004570792 76.374511539927383 -636.76653569014763 6.7169262647318055e-06 -9.0182281117857665e-06 -1.3283864507264508e-05 0.0000000000000000 2.5217744559213884e-12 1.8628432130185502e-12 5.3361924656769582e-08 -0.0081479361847149531 2.2936879294268704e-12 2.7592789107983660e-12 1.3327574438861591e-12 0.0000000000000000 -18.822600960987238 -194.52970000168264 81.412954998504986 111.95285379220412 0.0000000000000000 0.0000000000000000 0.0000000000000000 0.0000000000000000 3.1199082165597658 3.2430490783654600 1.1231657153138803 1.0596185557190543 1364.2899391268322 1364.2899241694950 1.0597959408908431 
-22.988105582895734 -103.37029778366809 36.609952369208855 -22.988105582895738 -103.37029778366809 36.609952369208855 -622.14430739193426 -1.8946233429602248e-05 2.1985614790291565e-05 -2.9957253613978649e-05 -628.23633003342786 2.8525931616840690e-12 3.5549341248497517e-13 7.0204565716380785e-08 -0.0080449025613733554 -8.7653049069915119e-13 1.1423101656106907e-12 -1.5516505942212113e-12 -0.0080450635689723621 -22.663982073999996 -103.20790935200000 43.238681550399988 69.202643319072678 0.0000000000000000 0.0000000000000000 0.0000000000000000 0.0000000000000000 3.1194531576174351 3.2421280596103905 1.1226996759195302 1.0596185557190545 1334.1420363581740 1328.6804495199760 1.0595758638394470 
-30.548932832909397 -110.99147952462204 40.516249558129331 -30.548932832909390 -110.99147952462204 40.516249558129338 -606.02145082299353 1.5530956545727289e-06 3.4648998595722081e-05 -4.0632957283008959e-05 -600.69941306349381 3.4986319397134484e-12 4.8561155097104347e-13 6.8550022547242406e-08 -0.0080433754923950815 -1.6216954510471988e-12 8.1136787834850981e-13 -5.4761563852104262e-12 -0.0080503349599471037 -30.151660686400003 -110.77310694400001 46.988755992800002 74.715282964229786 0.0000000000000000 0.0000000000000000 0.0000000000000000 0.0000000000000000 3.1200425877774474 3.2433197988300289 1.1233020199170392 1.0596185557190543 1303.4297835238197 1300.9165111775108 1.0598612212029812 
-19.020892275618671 -103.73209446010665 43.661707730248366 -19.020892275618674 -103.73209446010667 43.661707730248374 -594.10020140240306 -2.3086509539707261e-05 1.7923264066016409e-05 -4.3225404939408909e-05 -595.20345283069423 2.5172225415204252e-12 3.7336800318144014e-13 6.7217733601410159e-08 -0.0080439698744784304 -3.3232323214999839e-12 8.6947873766041048e-12 -3.1819848131832666e-12 -0.0080428787822281900 -18.735150314000002 -103.56704831999998 50.008419303199993 79.719497061372692 0.0000000000000000 0.0000000000000000 0.0000000000000000 0.0000000000000000 3.1195016517242284 3.2422244322644893 1.1227475302251135 1.0596185557190556 1284.0015733273867 1286.5598498532142 1.0595978127367567 
-25.843629036878465 -98.615046194341943 44.676094282374862 -25.843629036878461 -98.615046194341943 44.676094282374841 -602.57992611962891 7.9599512561769103e-07 8.2312398021080596e-06 -6.6818905263672587e-05 0.0000000000000000 3.0969532494040660e-12 2.8244073746463982e-13 6.6788079067237049e-08 -0.0080476739119697931 1.0892609254709134e-12 5.5596757262612056e-12 4.6361297384262446e-12 0.0000000000000000 -25.491879232152165 -98.487589184379729 50.982237960580505 72.292163684038698 0.0000000000000000 0.0000000000000000 0.0000000000000000 0.0000000000000000 3.1193981849257906 3.2420303230778407 1.1226571511261378 1.0596185557190552 1297.1372243556207 1308.2938185882458 1.0595542971287495 
-25.721913388604783 -104.32808515392047 104.82750305369818 -25.721913388604779 -104.32808515392040 104.82750305369822 -166.83171628815165 2.0452232415368096e-05 6.8331084485403354e-05 -1.0024692161364365e-05 0.0000000000000000 -5.9298473481581662e-08 -2.4797630346068291e-07 -8.3029417672834686e-07 -0.0079302748468031148 6.2141539037919867e-10 8.1323271686561722e-11 -2.1196301953922943e-09 0.0000000000000000 -25.283559732051039 -104.23282252886388 108.75695162467670 96.378087069502698 0.0000000000000000 0.0000000000000000 0.0000000000000000 0.0000000000000000 3.1429075322784525 3.2901915940919038 1.1472765446205593 1.0748815004935490 574.12313456907202 574.12288647247669 1.0710454223755728 
-26.373522158458602 -118.20548108134248 106.78812211185837 -26.373522158458620 -118.20548108134246 106.78812211185834 -121.57676115017969 3.0706665636212328e-05 4.8272582843848107e-06 -2.5256599900754381e-05 0.0000000000000000 8.0047383278681438e-08 -8.1069949084675309e-07 -1.3473155797581193e-06 -0.0081094716513194203 6.5084437105574667e-10 -8.4371747478042975e-10 -1.4734087478171219e-09 0.0000000000000000 -25.913646985361510 -118.01095136745833 110.66456878241424 88.846747377876298 0.0000000000000000 0.0000000000000000 0.0000000000000000 0.0000000000000000 3.1893240171495494 3.3875846935876726 1.1983558591719785 1.0883294674490425 584.20895440814786 584.21032380944951 1.0947607358831204 
-36.928410344649905 -112.71547056954124 108.25224262532288 -36.928410344649912 -112.71547056954117 108.25224262532279 -124.99534733769953 -2.1555813217388939e-05 3.8988042006880376e-05 2.4392253124191783e-05 0.0000000000000000 -3.1267241965403966e-07 -1.0477928558480445e-06 -1.6220911107941680e-06 -0.0077692630621899201 -4.3714564151045201e-10 -1.3348744967128433e-10 2.6352231454236115e-10 0.0000000000000000 -36.236867317722961 -112.72601430119678 112.03758904139967 95.996160021407249 0.0000000000000000 0.0000000000000000 0.0000000000000000 0.0000000000000000 3.1942591874788646 3.3980873194223591 1.2039490158242259 1.0933102160576722 600.63352696124628 600.63386088457139 1.0972556825984077 
-33.964695657015945 -105.03234522638125 101.47002828742677 -33.964695657015930 -105.03234522638118 101.47002828742684 -164.01407743962213 1.2503918694560774e-06 7.7929765543446403e-05 -1.4802511390737021e-05 0.0000000000000000 -5.6098596403832674e-08 -4.7671497064547676e-07 -1.2884003714898777e-06 -0.0080835371966746280 6.0817638879460223e-10 2.0723442662923358e-10 -1.2365236726889404e-09 0.0000000000000000 -33.380789828628046 -105.09637623893835 105.63342596379557 85.433794965156210 0.0000000000000000 0.0000000000000000 0.0000000000000000 0.0000000000000000 3.1740480396324338 3.3547806903736874 1.1807665638932687 1.0828402842332927 610.11468650849361 610.11453828374204 1.0866198674173828 
-113.41843093608033 -161.25105206610547 121.42761564394232 -113.41843093608033 -161.25105206610550 121.42761564394232 -393.19930487561015 3.3889316336819565e-06 -1.0670784037490258e-05 -2.6700783008057537e-05 -391.86471707988909 1.0555376017684635e-11 1.2966294704597203e-12 3.4279267424608406e-08 -0.0079796305642370526 8.5937599845177804e-12 -2.5275177233736368e-11 -9.8022777758099704e-11 -0.0079702156461740874 -112.21942232800005 -160.66347960400000 124.66427103520003 147.55923210393107 0.0000000000000000 0.0000000000000000 0.0000000000000000 0.0000000000000000 3.1288396614888367 3.2620290697762093 1.1332309574648733 1.0596185557190563 952.79180433895954 952.79350997033009 1.0645991865431192 
-100.60768613217492 -158.66325179801575 113.01160826456361 -100.60768613217489 -158.66325179801575 113.01160826456361 -405.32481712373936 -2.4207761385675513e-05 -1.8311844052764447e-05 -5.0767627673156618e-05 0.0000000000000000 9.4714652787430980e-12 1.2531087278944140e-12 3.7843944866722268e-08 -0.0080699913348157657 4.0050448976374966e-11 2.4404095827039555e-11 -6.6763815198981226e-11 0.0000000000000000 -99.532617471171264 -158.09468895943013 116.58484116745363 117.70414803503969 0.0000000000000000 0.0000000000000000 0.0000000000000000 0.0000000000000000 3.0973020281439143 3.1936631623196994 1.0963036013755945 1.0493259838141493 908.43117020341992 908.42430381629322 1.0469891221387284 
-105.46462053417771 -149.35516674336807 117.49794786414606 -105.46462053417778 -149.35516674336807 117.49794786414608 -381.65618285839054 -2.0658429395636839e-05 -2.0593284416401893e-05 -2.3427158121279539e-05 0.0000000000000000 9.8745872589844924e-12 1.1196599203344704e-12 3.5943717335840120e-08 -0.0079999487962632114 7.7926035390919523e-11 -5.0069022656402906e-11 -9.8015052877758973e-11 0.0000000000000000 -104.34256255272837 -148.85497981259945 120.89176065121424 119.29379793442074 0.0000000000000000 0.0000000000000000 0.0000000000000000 0.0000000000000000 3.0983775857328721 3.1973005102258067 1.0989138841194679 1.0501737692361184 870.69864767247759 870.70062818818428 1.0482200873242642 
-101.61522598859362 -162.88261239681879 121.32714183997790 -101.61522598859359 -162.88261239681881 121.32714183997781 -388.42753641343393 -1.3367820642050556e-05 -2.8177285549774034e-05 -2.4279179082320149e-05 0.0000000000000000 9.5491808904668574e-12 1.3281598043590748e-12 3.4321825381766757e-08 -0.0080063733194380895 6.0181676852052399e-11 -2.3126204639487481e-11 -1.0752063395081154e-10 0.0000000000000000 -100.53040969477119 -162.28305471776312 124.56781543385799 141.51484144144280 0.0000000000000000 0.0000000000000000 0.0000000000000000 0.0000000000000000 3.1008787470390087 3.2032021216278816 1.1023200977039875 1.0509168535457485 887.23636406482524 887.23692482727677 1.0498662883723746 
-79.269152600207221 -149.29719909643688 84.744523496051073 -79.269152600207221 -149.29719909643694 84.744523496051087 -418.18036986868174 -5.9947292849143421e-05 -4.2715547310746190e-05 -2.0605440797401442e-05 -418.61473014734332 7.6485900946110519e-12 1.1147749390261197e-12 4.9816730296470269e-08 -0.0082099174973235822 1.0284925052690978e-10 2.2341354821107566e-11 2.3921509510969596e-11 -0.0082506056489059544 -78.400527573600002 -148.79743798799998 89.448228916799977 108.06316173413846 0.0000000000000000 0.0000000000000000 0.0000000000000000 0.0000000000000000 3.1277931489734816 3.2593158602488397 1.1315587355942289 1.0596185557190538 996.06135319892189 996.05010816160882 1.0637993268390422 
-81.035073043077716 -163.13606381417824 82.999517057899553 -81.035073043077745 -163.13606381417824 82.999517057899553 -512.14388011284268 -3.4743162991251412e-05 -6.9869061569461814e-05 -3.8138851862222682e-05 -515.37784684593407 7.8001355374723857e-12 1.3365974993462258e-12 5.0555840402921604e-08 -0.0081366226026662013 2.6849600746375101e-11 5.6302348173550900e-11 2.9432659559170662e-11 -0.0081282297410543956 -80.149363288800018 -162.53464431600008 87.773009718400019 109.57810873427631 0.0000000000000000 0.0000000000000000 0.0000000000000000 0.0000000000000000 3.1289208076126660 3.2613636584319106 1.1324705779405873 1.0596185557190536 1162.0694160790115 1162.2363819138025 1.0642466789010232 
-85.221692601186149 -160.76846078989021 90.499652011326233 -85.221692601186120 -160.76846078989010 90.499652011326219 -469.26509377569869 -2.4955478011284784e-05 -4.8053006147880255e-05 -7.0815604694152056e-05 0.0000000000000000 8.1478573887849864e-12 1.2868595078430187e-12 4.7379097978250690e-08 -0.0081543103163795160 4.4920950216075342e-11 1.3371846178821427e-11 7.1487339259402994e-12 0.0000000000000000 -84.295478612813938 -160.18443337667750 94.973195224810283 106.11323630727971 0.0000000000000000 0.0000000000000000 0.0000000000000000 0.0000000000000000 3.0970336540953221 3.1964129519894819 1.0993907367420226 1.0505023861857359 1016.6878831842006 1016.5066960234263 1.0484223860099604 
-87.421507188915072 -151.90909686483278 88.063514336546703 -87.421507188915044 -151.90909686483283 88.063514336546689 -451.90941499364408 -2.8476759745173938e-05 -6.2389945473136362e-05 -6.8132338538069788e-05 0.0000000000000000 8.3452550425633376e-12 1.1571854585668007e-12 4.8410935704623625e-08 -0.0081942448861830278 -1.8591710543984058e-11 8.5621155841915826e-11 -5.2771910019567311e-12 0.0000000000000000 -86.474010682800568 -151.39014911596544 92.634484883397832 94.367740677547317 0.0000000000000000 0.0000000000000000 0.0000000000000000 0.0000000000000000 3.1086518739665934 3.2202401617681695 1.1116134214566917 1.0525927783026370 1006.1045780060825 1006.1133041881222 1.0543302438619220 
-26.375552528047095 -132.80954015399072 135.99037072563604 -26.375552528047084 -132.80954015399078 135.99037072563604 -232.04058459996617 2.0903862900509791e-05 -1.7889491428583307e-05 8.1606760329262432e-05 -245.30220148629954 3.1420283042038477e-12 8.4032780733878099e-13 2.8111092120752801e-08 -0.0077586819269292381 -1.3962463316941133e-10 2.4753509123559197e-11 3.6708091835492923e-11 -0.0076911700520526658 -26.018656529999991 -132.43089511199997 138.64462455200004 49.421240865332216 0.0000000000000000 0.0000000000000000 0.0000000000000000 0.0000000000000000 3.1182260598828839 3.2394873365569086 1.1212876070167399 1.0635274929514495 650.80622140979358 643.83852953190319 1.0589434980825752 
-32.915615979742412 -134.34675049695605 134.90530166587737 -32.915615979742405 -134.34675049695610 134.90530166587735 -220.87694257108896 -2.0295602920873604e-06 1.3916813411052857e-05 4.6021670560520134e-05 -182.66554056281632 3.6981945283898199e-12 8.7585494412678589e-13 2.8570665833171915e-08 -0.0078857692785926185 -1.5003825811796521e-10 -2.1174365415287940e-10 -2.7895956480199159e-10 -0.0076214833418519487 -32.495446914399992 -133.95681332000001 137.60295016000006 48.530522504776933 0.0000000000000000 0.0000000000000000 0.0000000000000000 0.0000000000000000 3.1487428072979009 3.3030392099221246 1.1543489436476309 1.0741881045208663 692.91289486067046 686.59165568852575 1.0743437863599430 
-28.798541514660045 -136.84708137037794 137.72514891160313 -28.798541514660034 -136.84708137037794 137.72514891160313 -233.48245974186599 2.4453478988869704e-05 1.6838848643171280e-05 2.5836019132401156e-05 -245.50173784514161 3.3469199633984204e-12 9.0050189527346447e-13 2.7376310995919084e-08 -0.0078306585977213645 -8.6034498391263045e-11 -6.3718544329772896e-11 -1.8839829272105565e-10 -0.0078060288109823260 -28.418203856399998 -136.43877710800004 140.31002455199999 44.353383947079159 0.0000000000000000 0.0000000000000000 0.0000000000000000 0.0000000000000000 3.1245374264897881 3.2522952967793661 1.1277780100368502 1.0665929398118632 667.73256789703078 788.53313176110180 1.0619513977573833 
-27.132585546920723 -129.85870574440850 141.41085966079737 -27.132585546920723 -129.85870574440847 141.41085966079740 -250.47685849970506 1.0580183350340109e-05 1.2998465017089083e-05 1.5597244185944566e-05 0.0000000000000000 3.2060881727247188e-12 8.0035977845227545e-13 2.5815193538392123e-08 -0.0077431822781241586 -6.4480800756184466e-11 -4.0003829465739647e-11 -4.5112038838858529e-11 0.0000000000000000 -26.768365491316434 -129.50173712462359 143.84833436668455 49.139845408488213 0.0000000000000000 0.0000000000000000 0.0000000000000000 0.0000000000000000 3.1275290862021099 3.2592723165817570 1.1317797914455776 1.0668779172485745 709.05215304470539 678.11473654124154 1.0638336983680867 
-40.562916227347550 -65.359235410960025 151.93686815781007 -40.562916227347543 -65.359235410960054 151.93686815781010 -357.89676926631461 -9.7520643010527983e-06 -5.3717009404799369e-07 1.7125066893214813e-05 -360.85785579594847 4.3528375348600434e-12 -2.5535129566378595e-13 2.1356793666882364e-08 -0.0077157842233935943 1.1292245186474198e-12 -2.5227943705405151e-12 8.3968294664862960e-12 -0.0077117035817921599 -40.068761925200000 -65.476070995999990 153.95338104800004 156.95717166164070 0.0000000000000000 0.0000000000000000 0.0000000000000000 0.0000000000000000 3.1166618524653535 3.2365445549650094 1.1199113655368171 1.0578762354520141 867.02602485161469 867.02523199508312 1.0582621606368277 
-53.041639954809810 -59.495869205460579 147.05194095950910 -53.041639954809817 -59.495869205460586 147.05194095950907 -363.40625508506793 -1.0627640609058132e-05 -2.4334402925416004e-06 1.2953665712624167e-05 -364.87353209322816 5.4104914992691988e-12 -3.5194069880617462e-13 2.3425862138992670e-08 -0.0077198867570143154 -5.7989786763972151e-12 8.8028199942612784e-12 -2.0161060663202447e-11 -0.0077184459842184897 -52.426757905599978 -59.655776269200025 149.26381449600007 118.05125250056595 0.0000000000000000 0.0000000000000000 0.0000000000000000 0.0000000000000000 3.1221702396691597 3.2479393697355365 1.1258001768482768 1.0581411875757234 887.85075166538002 887.85922644522554 1.0610463719857586 
-35.619243073824286 -65.917032079885331 142.61007610990413 -35.619243073824286 -65.917032079885317 142.61007610990416 -347.53806716141378 -2.8003017448938329e-06 1.6197103197162997e-06 6.8117553635405037e-07 -347.33331582201021 3.9265674045552146e-12 -2.5279778270714814e-13 2.5307238971095103e-08 -0.0077155894172899458 -8.6772215553982192e-12 1.1455312997156701e-11 -2.4767169461126954e-11 -0.0077071761369910804 -35.172917262399999 -66.029770167599992 144.99959110400002 155.12084301790807 0.0000000000000000 0.0000000000000000 0.0000000000000000 0.0000000000000000 3.1208394326156603 3.2448538750130567 1.1240390411770542 1.0593375938181060 858.36079668877221 858.36987695306323 1.0602083767807591 
-51.008035810257837 -66.481536875010349 139.69747321658124 -51.008035810257837 -66.481536875010320 139.69747321658130 -354.38906075794006 -1.0550103898098282e-05 6.1357803692722051e-06 7.7841848984401903e-06 0.0000000000000000 5.2386844862084566e-12 -2.4802382370125997e-13 2.6540906361560704e-08 -0.0077297794232184117 -9.9791725666502681e-12 6.2132998200418347e-12 -2.6233985897681215e-11 0.0000000000000000 -50.412828244765279 -66.590128188430739 142.20347059834828 136.07757377940416 0.0000000000000000 0.0000000000000000 0.0000000000000000 0.0000000000000000 3.1078860835157367 3.2175904061900549 1.1097015117174924 1.0548128198044913 842.76946903909493 842.75717563672663 1.0534102470673783 
-95.586206254573270 -159.28991738950864 72.430700159081368 -95.586206254573270 -159.28991738950864 72.430700159081397 -600.37589839616908 -1.4520302422359057e-05 -2.0659476724870974e-05 -2.9615236380017702e-05 -600.58965536963569 9.0388113660466729e-12 1.2777556790410925e-12 5.5032364443263759e-08 -0.0081309744750610140 -2.4041929608893737e-11 3.2152989303772839e-11 -8.8087097426037143e-12 -0.0081235719194583944 -94.559718839999974 -158.71675115199997 77.626866652000004 109.98746742214213 0.0000000000000000 0.0000000000000000 0.0000000000000000 0.0000000000000000 3.1190120463140327 3.2412318376728471 1.1222446764386080 1.0596185557190563 1294.6175682127757 1294.6127317209830 1.0593580421390150 
-90.660976837225860 -159.03771881761591 77.442626998820600 -90.660976837225888 -159.03771881761591 77.442626998820600 -559.12862607813747 -5.2343677875719360e-05 -4.7606205983285900e-05 -6.0631483956237514e-05 -545.49816325931158 8.6143731037324756e-12 1.2737588761524421e-12 5.2909520320554293e-08 -0.0081261190803148600 -6.8545039928788924e-12 5.8772287826740465e-11 1.5652514483812052e-11 -0.0081308420976618518 -89.682139475999989 -158.46640519600001 82.438353807199988 112.88451412247700 0.0000000000000000 0.0000000000000000 0.0000000000000000 0.0000000000000000 3.1203648354898372 3.2438253732604134 1.1234831559169609 1.0596185557190558 1219.9749158533500 1220.0170179570848 1.0599351167038726 
-103.81597444214157 -155.48928596843800 81.787001794171999 -103.81597444214154 -155.48928596843788 81.787001794172014 -552.79531358904990 -1.2059586935199779e-05 -1.1274283147736691e-05 -6.8746868031874470e-05 0.0000000000000000 9.7353652916964961e-12 1.2007062011321068e-12 5.1069417139615319e-08 -0.0081523410776050045 -2.0263534950295782e-11 3.8907383193005380e-11 -2.1222655331563933e-11 0.0000000000000000 -102.70986659571734 -154.94403864466588 86.608986019839278 111.02505284862640 0.0000000000000000 0.0000000000000000 0.0000000000000000 0.0000000000000000 3.1216564852648934 3.2466910920809799 1.1250601506362303 1.0580724644610386 1221.3658800144913 1221.3650271698423 1.0607079672775646 
-101.49067598836091 -167.80966440179932 78.725660090679327 -101.49067598836093 -167.80966440179932 78.725660090679369 -584.74032222184428 -6.8719061973547464e-06 -1.4273986448179826e-05 -6.5823533504146957e-05 0.0000000000000000 9.5441848868560458e-12 1.4145351556749122e-12 5.2366068814535538e-08 -0.0081139336045705761 -2.0282082297494373e-11 1.8521902700979134e-11 -1.6346721797276952e-11 0.0000000000000000 -100.40706467681501 -167.17391327890167 83.670075146830683 105.53983917324770 0.0000000000000000 0.0000000000000000 0.0000000000000000 0.0000000000000000 3.1193365620253100 3.2419042072617836 1.1225925714592071 1.0583696637650044 1264.7346074300797 1264.6718961783888 1.0595271855084045 
-115.84656226282483 -99.943063872491152 92.165335568373251 -115.84656226282483 -99.943063872491152 92.165335568373251 -464.03654321034122 -1.1443238246030274e-05 -1.6011967599988333e-05 -4.9127530644474148e-05 -469.80210341546149 1.0760094921678486e-11 3.0264679651281762e-13 4.6673569897848211e-08 -0.0081974370534278768 -1.8058813826981818e-11 -1.4132299389618163e-11 -1.0512250348315649e-10 -0.0082008503262401278 -114.62406224400000 -99.805851428000011 96.572263865600007 85.211636250682801 0.0000000000000000 0.0000000000000000 0.0000000000000000 0.0000000000000000 3.1224996372080507 3.2478103341993783 1.1253059053271526 1.0538849329612030 1062.5016064258164 1062.5017618266356 1.0607831027783947 
-112.27551335413126 -91.170411726504000 95.966352538743763 -112.27551335413129 -91.170411726503986 95.966352538743749 -438.78625349952762 -5.0899750902882847e-06 -7.8138076942739542e-07 -5.3562717780032114e-05 -435.30486726074190 1.0461007060591498e-11 1.6586731987899839e-13 4.5063622167162976e-08 -0.0081590438153439655 -7.5500184186423951e-13 2.4131365263267014e-11 -1.1544112358116677e-10 -0.0081433348060051640 -111.08756211600000 -91.097641973600034 100.22126851279998 99.535403830130534 0.0000000000000000 0.0000000000000000 0.0000000000000000 0.0000000000000000 3.1311148047375705 3.2663100272753431 1.1352373602644830 1.0574918196859120 1035.3798464514216 1035.3811942663758 1.0655210101831647 
-114.11004783716879 -97.777106508710361 104.47206019300597 -114.11004783716884 -97.777106508710389 104.47206019300597 -404.31863684949292 -4.9396164463321062e-06 -3.3276728866620427e-06 -4.7176061146576209e-05 -403.74463956261383 1.0616438284039020e-11 2.7111646261346323e-13 4.1460957334038540e-08 -0.0080700415804982068 -3.4779969646968559e-11 -6.9882082965953339e-11 -1.3960397880349742e-10 -0.0080684366721935647 -112.90434805199999 -97.655804887999992 108.38681131359999 128.09762094244454 0.0000000000000000 0.0000000000000000 0.0000000000000000 0.0000000000000000 3.1217817888799342 3.2473841493288735 1.1256350787939817 1.0574640562391353 960.91456556758533 960.90793700892016 1.0609617892344207 
-108.30419628795397 -104.00827624057273 96.308950394299572 -108.30419628795394 -104.00827624057273 96.308950394299572 -432.94628992689434 -5.3682484096516405e-05 -5.1465313141544654e-06 -5.6996597961401004e-05 0.0000000000000000 1.0118170190587250e-11 3.7059244561987725e-13 4.4918506247881851e-08 -0.0081837923383808360 3.3998079804159305e-11 -5.3788273082949466e-11 -1.0243673558711740e-10 0.0000000000000000 -107.15466629968294 -103.84120130723400 100.55016500991876 102.24201981555134 0.0000000000000000 0.0000000000000000 0.0000000000000000 0.0000000000000000 3.1007931998874718 3.2016612227258365 1.1008382612857910 1.0489667689085869 960.74951122419327 960.75072193834433 1.0491580580808921 
-27.314400512567794 -115.54183560477254 99.090750574922623 -27.314400512567779 -115.54183560477257 99.090750574922666 -146.67752641015366 4.3432777275378738e-05 2.0339594980787738e-05 -6.1765248355848069e-05 0.0000000000000000 8.7090586411999144e-08 -7.9361090320055884e-07 -1.0881215900603922e-06 -0.0086271687752843620 -1.4121811406883295e-11 -6.7385643882928420e-10 -1.3487925035313650e-09 0.0000000000000000 -26.889884864405381 -115.37486796036181 103.37575244326078 96.382960025775517 0.0000000000000000 0.0000000000000000 0.0000000000000000 0.0000000000000000 3.1666692935057212 3.3402667613543047 1.1736564144353487 1.0831686649618857 582.26547455995558 582.26525284363333 1.0833414666276762 
-110.74144376289664 -103.78722448163403 150.10778742965380 -110.74144376289661 -103.78722448163400 150.10778742965383 -369.61001753207540 1.1743045138028306e-06 3.9642356476667440e-06 3.5102698330878327e-07 -371.21242675815694 1.0322673271723202e-11 3.6759484345338933e-13 2.2131530386104714e-08 -0.0076998306552564432 -6.0226638196230274e-12 -1.1647076009004633e-11 -1.2176595756443649e-11 -0.0076923721004950050 -109.56833416800004 -103.62177336400003 152.19744990400002 70.302883591683823 0.0000000000000000 0.0000000000000000 0.0000000000000000 0.0000000000000000 3.1148402159910145 3.2322777034777697 1.1174522951623749 1.0572028324665304 883.91632677990992 883.91053438352003 1.0571031261588717 