# For a description of the Tecplot format see the Tecplot User's guide.
#
Variables=x,y,z,s_u,s_v,s_w,s_p,mono_f_vel_u,mono_f_vel_v,mono_f_vel_w,const,u_nu,v_nu,w_nu,p_nu,x_nu,y_nu,z_nu,const,u_ref,v_ref,w_ref,vol_ref,x_ref,y_ref,z_ref,const,I1,I2,I3,J,p1,p2,p3
Zone f=fepoint, n=3174, e=16683, et=brick, c=black
-24.9431 -154.223 111.823 -24.943112388562113 -154.22267151100348 111.82269353895521 -61.624542456533931 -2.6102988781845339e-06 -1.1240391821686430e-05 -1.0837926915309435e-05 -60.832565994287407 2.7281799515679890e-08 2.4576860241376505e-08 4.9110273673269589e-06 0.0017022530568990342 5.5999605293493180e-11 1.8249057407534022e-10 -3.9727514465440883e-11 0.0016863565149940927 -24.903554063199991 -154.16086777200002 112.24023381839994 89.724962256112903 0.0000000000000000 0.0000000000000000 0.0000000000000000 0.0000000000000000 3.0136050655858289 3.0272396497981564 1.0136345441669905 1.0071006613842886 134.57742519860315 134.57742519761024 1.0067938822416562 
-37.498862390955544 -155.20070376493834 114.51919045844663 -37.498862390955544 -155.20070376493825 114.51919045844667 -56.489876202049729 8.8899061012554865e-06 -1.0541433789563191e-05 -5.7611854175261006e-06 0.0000000000000000 -1.0293557983682175e-07 1.9504987605322688e-07 6.0314831559037416e-06 0.0017095118623265927 -9.7856774040050829e-11 1.0828544366324512e-10 -7.2559076611867880e-12 0.0000000000000000 -37.438273663334591 -155.10473791080037 114.93291110338620 89.036758072416930 0.0000000000000000 0.0000000000000000 0.0000000000000000 0.0000000000000000 3.0197883427239547 3.0396857297537951 1.0198975303220019 1.0093669397090659 138.68476918737682 138.68476914035503 1.0099006004334710 
-31.589593133703612 -147.93555100075943 119.47912159022043 -31.589593133703605 -147.93555100075940 119.47912159022050 -53.052692840634720 3.0598643064769334e-06 -7.8575560827246313e-06 -8.4820536222807014e-07 0.0000000000000000 3.2395791707204302e-08 2.2458962578575381e-08 4.4957145545199131e-06 0.0016802519490835535 -4.0006508979804993e-11 1.4346998617126741e-10 -1.7515648972303541e-11 0.0000000000000000 -31.542619574254449 -147.87907313389167 119.86135157363466 98.260374494724786 0.0000000000000000 0.0000000000000000 0.0000000000000000 0.0000000000000000 3.0162498592903675 3.0325656801853524 1.0163158581752834 1.0084111520789298 127.37960715525924 127.37960715613598 1.0081238317121040 
-28.691395925114605 -143.01969519014099 111.70644453672799 -28.691395925114616 -143.01969519014108 111.70644453672791 -52.304510168438128 4.0352704877654581e-06 -9.0633349150913142e-06 -6.5482919515797371e-06 0.0000000000000000 3.0165838714110715e-08 2.0803009662118122e-08 4.9173331427843081e-06 0.0016613576741460643 3.6596452163894719e-11 1.2500109651478388e-10 8.5698093864337401e-11 0.0000000000000000 -28.647655777685479 -142.96738158566356 112.12452093910819 112.69127588814607 0.0000000000000000 0.0000000000000000 0.0000000000000000 0.0000000000000000 3.0172204359877992 3.0345234628337261 1.0173031344234926 1.0084617419451216 127.36483870669646 127.36483872267682 1.0086143857150516 
-24.300701807907345 -200.53319345976337 73.130563914223018 -24.300701807907345 -200.53319345976340 73.130563914223004 -110.82268741908187 2.6217426067026799e-07 -4.2737423295027511e-09 2.2560920877236512e-07 -111.17010228475876 2.6787513396700491e-08 4.0177052823553432e-08 7.0098307954902239e-06 0.0018742039049085989 -1.7424570898977907e-11 -5.9286099301531111e-12 -7.9374354846478235e-12 0.0018765792049276445 -24.261860196399997 -200.43215969199997 73.726546483199982 142.71380061529433 0.0000000000000000 0.0000000000000000 0.0000000000000000 0.0000000000000000 3.0132351869727669 3.0265108286634055 1.0132756771023976 1.0066080077040118 221.13044415160383 221.13044426594521 1.0066159560156984 
-24.196122699242583 -187.72926516148652 74.721235602701014 -24.196122699242583 -187.72926516148655 74.721235602701000 -109.62912596409265 1.4184680818276236e-06 -2.0731573048123237e-06 -6.3849003545189130e-07 -109.99434855085369 2.6707044754534233e-08 3.5863915254230605e-08 6.9235469098982722e-06 0.0018693934780268230 -2.8683432740644798e-11 2.2047193307115304e-11 1.3975369889528529e-11 0.0018797376259016498 -24.157397762799999 -187.63907770800003 75.309882232799993 165.73632395326644 0.0000000000000000 0.0000000000000000 0.0000000000000000 0.0000000000000000 3.0132357398487399 3.0265116731417279 1.0132759680286045 1.0066080077040112 219.13646772740589 219.13646778994104 1.0066160870615097 
-34.936249574119969 -195.50810591001985 81.037160587936199 -34.936249574119977 -195.50810591002002 81.037160587936214 -109.09493913937753 4.7576194931770151e-07 -1.6313400196081726e-06 -3.3184688960183809e-06 0.0000000000000000 3.4970808976061973e-08 3.8484301967400831e-08 6.5809479171674568e-06 0.0018557365385897489 -2.3959085859363356e-11 2.4428848223393308e-11 1.8292232711285528e-13 0.0000000000000000 -34.885542273181727 -195.41132893576267 81.596679120775832 139.46796289390394 0.0000000000000000 0.0000000000000000 0.0000000000000000 0.0000000000000000 3.0131241161019635 3.0262883090839559 1.0131642284830698 1.0064894963618287 217.98440308315645 217.98440286825908 1.0065605818421826 
-18.855367413208455 -194.62572950754208 80.852585231849702 -18.855367413208455 -194.62572950754205 80.852585231849687 -110.18083000320927 7.0413045193827119e-07 -1.0076315660786553e-06 -1.5396008559344403e-06 0.0000000000000000 2.2597715405511809e-08 3.8187072476381090e-08 6.5909599634705884e-06 0.0018765462951557525 -1.7598931880757782e-11 2.2925194258323920e-11 1.5095811653132796e-12 0.0000000000000000 -18.822600960987238 -194.52970000168264 81.412954998504986 111.95285379220412 0.0000000000000000 0.0000000000000000 0.0000000000000000 0.0000000000000000 3.0132587292103215 3.0265578571613263 1.0132991632251660 1.0066080077040140 220.72049996136622 220.72049996748976 1.0066276297361789 
-22.701039000554253 -103.22651382119112 42.501442072568601 -22.701039000554257 -103.22651382119112 42.501442072568601 -111.38982844834710 -2.3770807388140951e-06 2.6986183130776697e-06 -3.6464290921306959e-06 -112.07894046005210 2.5556685134472956e-08 7.3982522746929291e-09 8.6712670239741385e-06 0.0018592339880670289 -1.9635058568271213e-11 -2.3676708952317092e-11 3.6924989550955691e-11 0.0018772154219219414 -22.663982073999996 -103.20790935200000 43.238681550399988 69.202643319072678 0.0000000000000000 0.0000000000000000 0.0000000000000000 0.0000000000000000 3.0132093814265106 3.0264590263233915 1.0132496800661246 1.0066080077040120 222.27321316920367 222.24441890213419 1.0066030486198458 
-30.197080670915796 -110.79812538839677 46.268891425441176 -30.197080670915796 -110.79812538839677 46.268891425441161 -109.39382152710903 1.7852291895810952e-07 4.3304624998156418e-06 -4.9204433784121264e-06 -108.61593981976701 3.1324355219061739e-08 9.9488252081059159e-09 8.4669067127451942e-06 0.0018525897165266852 3.9452850298300225e-11 -1.6700223058490569e-11 3.0636476281276161e-11 0.0018815117467828252 -30.151660686400003 -110.77310694400001 46.988755992800002 74.715282964229786 0.0000000000000000 0.0000000000000000 0.0000000000000000 0.0000000000000000 3.0132786909132601 3.0265978313428223 1.0133191756802205 1.0066080077040118 218.48817169351244 218.50973995693451 1.0066375849885800 
-18.767819091779330 -103.58595727673530 49.302545492686512 -18.767819091779330 -103.58595727673530 49.302545492686512 -107.91020571493478 -2.8848371535295649e-06 2.2477484629987924e-06 -5.2672152053430985e-06 -108.03178746510979 2.2530353764940722e-08 7.5193249127192274e-09 8.3023501633583424e-06 0.0018476187119655894 -1.3425448649937278e-11 -3.5022713881146853e-11 2.4656091124332275e-11 0.0018558720377107455 -18.735150314000002 -103.56704831999998 50.008419303199993 79.719497061372692 0.0000000000000000 0.0000000000000000 0.0000000000000000 0.0000000000000000 3.0132149237655752 3.0264701047223110 1.0132552160918062 1.0066080077040118 216.06727612676283 216.03751261632308 1.0066057891843549 
-25.532094663373503 -98.502191640913566 50.280876063696574 -25.532094663373513 -98.502191640913622 50.280876063696567 -109.07207909642246 -7.4451128486128018e-09 1.1113347362497890e-06 -8.0444248484194600e-06 0.0000000000000000 2.7734980123303440e-08 5.8068124614285557e-09 8.2492819099000414e-06 0.0018472876547725508 1.5706834282517561e-12 -1.2049820716299671e-11 7.3204883235242551e-12 0.0000000000000000 -25.491879232152165 -98.487589184379729 50.982237960580505 72.292163684038698 0.0000000000000000 0.0000000000000000 0.0000000000000000 0.0000000000000000 3.0132008749971195 3.0264421477931993 1.0132413082653491 1.0066080077040112 217.86498055540565 217.92481657199400 1.0065988697118309 
-25.336078787295218 -104.24104356492835 108.31922070473307 -25.336078787295225 -104.24104356492839 108.31922070473310 -52.729369730469863 2.8891285010875438e-06 9.8563448401894203e-06 -2.5581732279602320e-06 0.0000000000000000 -5.6607720439423896e-07 -1.5078412428597466e-07 5.1963301789680160e-06 0.0015992383142712002 -1.3823799826216626e-10 -1.9115501874582419e-10 2.3764142601677900e-10 0.0000000000000000 -25.283559732051039 -104.23282252886388 108.75695162467670 96.378087069502698 0.0000000000000000 0.0000000000000000 0.0000000000000000 0.0000000000000000 3.0162577471915122 3.0325680409878388 1.0163102360035792 1.0086560501636848 124.94788431901496 124.94788395250440 1.0081208523125407 
-25.969163010417983 -118.02926997343113 110.23288838541555 -25.969163010417986 -118.02926997343104 110.23288838541562 -45.195550202940602 5.3893444855755510e-06 1.7232229895880818e-06 -3.9852559197941998e-06 0.0000000000000000 -6.4661812025944604e-07 2.6415925316490376e-07 5.1618862615825508e-06 0.0015828164083702514 -1.3397840799723964e-10 3.5858259662773163e-11 1.8967586493722955e-10 0.0000000000000000 -25.913646985361510 -118.01095136745833 110.66456878241424 88.846747377876298 0.0000000000000000 0.0000000000000000 0.0000000000000000 0.0000000000000000 3.0229180845999686 3.0459685460490378 1.0230506196787312 1.0105738447370936 124.95475188694948 124.95475184351243 1.0114610126887518 
-36.322430260737050 -112.71616320582157 111.61801375667896 -36.322430260737057 -112.71616320582153 111.61801375667893 -45.663303007863590 -2.1858357195870328e-06 7.5673635310844294e-06 5.1035293657563175e-06 0.0000000000000000 -6.1937152506894689e-07 1.8668324474663105e-07 5.0370374384545067e-06 0.0015584514049737425 5.9685200146579879e-11 -1.5066259811619650e-10 -8.9926655932571676e-11 0.0000000000000000 -36.236867317722961 -112.72601430119678 112.03758904139967 95.996160021407249 0.0000000000000000 0.0000000000000000 0.0000000000000000 0.0000000000000000 3.0237464604105977 3.0476364623277585 1.0238902158211518 1.0112796531152126 127.41692931786655 127.41692755398765 1.0118748276404401 
-33.452332024040203 -105.08160337946651 105.16727579706190 -33.452332024040182 -105.08160337946644 105.16727579706186 -52.564252577009519 4.1441061925090168e-07 1.1445631163142866e-05 -4.4335955693809646e-06 0.0000000000000000 -7.7487959138600399e-07 -2.1795817510416816e-07 5.2562360583594527e-06 0.0016303014458786170 -1.6569042585801248e-10 -2.0999481631063530e-10 2.2132780423870597e-10 0.0000000000000000 -33.380789828628046 -105.09637623893835 105.63342596379557 85.433794965156210 0.0000000000000000 0.0000000000000000 0.0000000000000000 0.0000000000000000 3.0201954956288311 3.0404778958113634 1.0202824114680284 1.0096408814816253 130.35620077920387 130.35620296409527 1.0100900715751495 
-112.35650455964351 -160.73079642981386 124.30429402220906 -112.35650455964354 -160.73079642981386 124.30429402220905 -84.036997501523757 3.4598116541316104e-07 -1.1006483043865466e-06 -3.0660585212155567e-06 -83.883818206439301 9.4540158901076921e-08 2.6769191002751214e-08 4.2339794538159836e-06 0.0016022345985642458 -6.1293472699712471e-12 2.1659298914565993e-11 3.1950832956828539e-11 0.0016007834867115464 -112.21942232800005 -160.66347960400000 124.66427103520003 147.55923210393107 0.0000000000000000 0.0000000000000000 0.0000000000000000 0.0000000000000000 3.0144371639035987 3.0289303211099381 1.0144932179571744 1.0066080077040109 177.01687665823079 177.01688809227429 1.0072215919873533 
-99.655529692340608 -158.15982789639148 116.18743039873922 -99.655529692340650 -158.15982789639150 116.18743039873924 -85.281333735492737 -2.9304389631569937e-06 -1.9829722973375542e-06 -6.1367212166504391e-06 0.0000000000000000 8.4767666821625176e-08 2.5903139744265499e-08 4.6742679908895477e-06 0.0016280506951685219 6.1025620506938323e-11 5.0809385031667179e-11 5.6368794367136318e-11 0.0000000000000000 -99.532617471171264 -158.09468895943013 116.58484116745363 117.70414803503969 0.0000000000000000 0.0000000000000000 0.0000000000000000 0.0000000000000000 3.0101865336140317 3.0203546175916833 1.0101679906533223 1.0053617993451434 170.20008862443177 170.20011333568064 1.0050702980212698 
-104.47084704634570 -148.91228507903796 120.51430477715395 -104.47084704634565 -148.91228507903804 120.51430477715395 -82.730195390481313 -2.5660709961117555e-06 -2.1308729454362213e-06 -2.8810732595512176e-06 0.0000000000000000 8.8472709510942216e-08 2.2787984554906160e-08 4.4395624100301845e-06 0.0015962609206119341 4.7825899175876475e-11 4.5565488925029691e-11 4.1062748149234338e-11 0.0000000000000000 -104.34256255272837 -148.85497981259945 120.89176065121424 119.29379793442074 0.0000000000000000 0.0000000000000000 0.0000000000000000 0.0000000000000000 3.0104537351191727 3.0209102541509769 1.0104565026224739 1.0054407063120829 166.37114160367398 166.37108129542139 1.0052135770791193 
-100.65443635936583 -162.35174466232203 124.20739152108855 -100.65443635936576 -162.35174466232192 124.20739152108855 -83.315503137175213 -1.7498282503602653e-06 -3.1228819007403074e-06 -2.7248948960384308e-06 0.0000000000000000 8.5536244425962749e-08 2.7315229272906197e-08 4.2392358016174461e-06 0.0016006375138207152 3.4004791333941478e-11 6.1527098042564955e-11 3.2287152907130032e-11 0.0000000000000000 -100.53040969477119 -162.28305471776312 124.56781543385799 141.51484144144280 0.0000000000000000 0.0000000000000000 0.0000000000000000 0.0000000000000000 3.0107725000312953 3.0215603112140035 1.0107878033090458 1.0055366931811993 167.93769671893463 167.93769113260990 1.0053786588379880 
-78.499837166797477 -148.85469446895326 88.925088321751204 -78.499837166797505 -148.85469446895328 88.925088321751204 -86.079302995347689 -7.3558273243154371e-06 -4.9872942887470976e-06 -2.4630357618533035e-06 -86.040410215178113 6.8489875706609360e-08 2.2768601837253044e-08 6.1530776968021783e-06 0.0017329352418383017 6.4397027921236077e-11 6.8670351571561921e-11 5.0642066522484346e-11 0.0017352814834770195 -78.400527573600002 -148.79743798799998 89.448228916799977 108.06316173413846 0.0000000000000000 0.0000000000000000 0.0000000000000000 0.0000000000000000 3.0141032301331303 3.0282534022940455 1.0141502245763101 1.0066080077040107 179.99624260070729 179.99584337706602 1.0070508824213587 
-80.250626172891558 -162.60354756489440 87.242107468471772 -80.250626172891558 -162.60354756489443 87.242107468471744 -97.301997093848655 -4.3535817597279813e-06 -7.9705935350914807e-06 -4.4748363156875363e-06 -97.664173613040631 6.9836970794864839e-08 2.7400053392856449e-08 6.2443687680602275e-06 0.0017662939066922351 3.0148124185132104e-11 8.2146072962968788e-11 8.8726910490823992e-11 0.0017809033570301456 -80.149363288800018 -162.53464431600008 87.773009718400019 109.57810873427631 0.0000000000000000 0.0000000000000000 0.0000000000000000 0.0000000000000000 3.0142806282548045 3.0286056478843930 1.0143250595967552 1.0066080077040120 200.08792781030337 200.08871778182402 1.0071380237307093 
-84.401372331716274 -160.25134405439178 94.475653000257878 -84.401372331716217 -160.25134405439169 94.475653000257836 -92.262418468628212 -3.3320481256937518e-06 -5.5484562159550377e-06 -8.3254163649959807e-06 0.0000000000000000 7.3030679384120112e-08 2.6607689246338498e-08 5.8519946636303999e-06 0.0017389742305186104 -1.3842408470217694e-12 5.8170597859739430e-11 2.4503205584342109e-11 0.0000000000000000 -84.295478612813938 -160.18443337667750 94.973195224810283 106.11323630727971 0.0000000000000000 0.0000000000000000 0.0000000000000000 0.0000000000000000 3.0106702588135192 3.0213682261217047 1.0106979796836830 1.0055849241577841 182.87753025430658 182.87797765228706 1.0053335549126345 
-86.582337624456613 -151.44960376619164 92.126106905201794 -86.582337624456613 -151.44960376619159 92.126106905201809 -90.359252429248741 -3.6888903385702796e-06 -7.1948888160685440e-06 -8.0797962370033330e-06 0.0000000000000000 7.4708769856254853e-08 2.3642716062699524e-08 5.9794426773285281e-06 0.0017374831782099689 2.7683871014914031e-11 8.6497111879302922e-11 1.6395469994362469e-11 0.0000000000000000 -86.474010682800568 -151.39014911596544 92.634484883397832 94.367740677547317 0.0000000000000000 0.0000000000000000 0.0000000000000000 0.0000000000000000 3.0120177044450860 3.0240714952567864 1.0120538263119234 1.0058130019343805 181.86241255584810 181.86251900011573 1.0060088289810449 
-26.059460323690242 -132.47427560373652 138.34942155735465 -26.059460323690242 -132.47427560373652 138.34942155735465 -62.280148478800690 3.0098694892102712e-06 -2.6477751955166471e-06 1.2190215192829424e-05 -64.230683606936367 2.8140750530161743e-08 1.7250677025737460e-08 3.4721200814491482e-06 0.0017015836092918106 1.6065773366940617e-11 -3.7388554554093111e-12 -1.0592327314203362e-10 0.0016806104539991847 -26.018656529999991 -132.43089511199997 138.64462455200004 49.421240865332216 0.0000000000000000 0.0000000000000000 0.0000000000000000 0.0000000000000000 3.0130974874383365 3.0262342588532030 1.0131368140076717 1.0071641273587242 136.15541882523985 136.15541829219043 1.0065476802452795 
-32.543484695577334 -134.00148752567233 137.30292086134909 -32.543484695577341 -134.00148752567236 137.30292086134904 -60.836314874351523 -5.4779251328658335e-07 1.5214646480035347e-06 7.7017119783496996e-06 -56.125588585562362 3.3129745813029188e-08 1.7765116960832824e-08 3.5288861111038017e-06 0.0017280426164570271 4.1176642986714362e-11 1.3517521741688925e-11 -2.0940072555974011e-11 0.0018329694071070538 -32.495446914399992 -133.95681332000001 137.60295016000006 48.530522504776933 0.0000000000000000 0.0000000000000000 0.0000000000000000 0.0000000000000000 3.0171076801218057 3.0342857064428648 1.0171780991899080 1.0085921062458632 142.44520406195929 142.44520421038288 1.0085507619625471 
-28.461687726841784 -136.48555558841255 140.02253771775239 -28.461687726841777 -136.48555558841255 140.02253771775239 -62.921794063344578 4.0018735514200860e-06 1.6745164395061960e-06 3.7845377007015922e-06 -64.917553482723164 2.9989093637203257e-08 1.8601902768144996e-08 3.3813640999413867e-06 0.0017169117486593153 2.9436485352788050e-11 -6.0788790200474941e-11 -2.3606429996752238e-12 0.0016965647551701870 -28.418203856399998 -136.43877710800004 140.31002455199999 44.353383947079159 0.0000000000000000 0.0000000000000000 0.0000000000000000 0.0000000000000000 3.0140402734638152 3.0281221753428151 1.0140819312578837 1.0076285391542097 139.77072217205483 139.77072075648718 1.0070157509746838 
-26.810006641926261 -129.54263419851469 143.57724129133399 -26.810006641926250 -129.54263419851472 143.57724129133396 -65.156720796645075 1.1270408738161430e-06 1.3948174695484743e-06 2.6567199384853838e-06 0.0000000000000000 2.8718243253941789e-08 1.6263106306091402e-08 3.1885439059076148e-06 0.0017199361742701270 4.5477903053101285e-12 -4.6460895081797138e-12 1.5781178863054057e-11 0.0000000000000000 -26.768365491316434 -129.50173712462359 143.84833436668455 49.139845408488213 0.0000000000000000 0.0000000000000000 0.0000000000000000 0.0000000000000000 3.0142197529410653 3.0284927395172456 1.0142730375841860 1.0076158910553774 144.67369251363365 144.67369276265450 1.0071108209939081 
-40.125258412429631 -65.462685411694665 153.72910685160920 -40.125258412429623 -65.462685411694665 153.72910685160920 -80.044364603275454 -1.3913226131383837e-06 -2.7686168419258523e-08 2.1970106190740535e-06 -80.434563779102263 3.8963378056963704e-08 -5.3229108065711009e-09 2.6378693811501815e-06 0.0016235604965727003 -2.2658574752579174e-11 1.4632218692416663e-12 2.8196138771644216e-12 0.0016243435647156563 -40.068761925200000 -65.476070995999990 153.95338104800004 156.95717166164070 0.0000000000000000 0.0000000000000000 0.0000000000000000 0.0000000000000000 3.0127867041477709 3.0256134005215976 1.0128267382941976 1.0063793180852709 166.55449256229028 166.55449579941325 1.0063929959591675 
-52.497057153608040 -59.637456084626372 149.01781251786841 -52.497057153608019 -59.637456084626372 149.01781251786841 -80.804582260775504 -1.3465491584406559e-06 -4.0390840401118931e-07 1.8427852620211570e-06 -80.972715351859705 4.8482590426709993e-08 -7.2851985000177413e-09 2.8934272998659698e-06 0.0016038399651056936 -1.1045177323012823e-12 -1.3401161625155161e-11 1.8381534777206042e-11 0.0016119435583749444 -52.426757905599978 -59.655776269200025 149.26381449600007 118.05125250056595 0.0000000000000000 0.0000000000000000 0.0000000000000000 0.0000000000000000 3.0135560559872450 3.0271577730120027 1.0136017625276563 1.0064231588606316 169.56292073385495 169.56291258167519 1.0067780470519094 
-35.223945535139507 -66.016854024140727 144.73383205149321 -35.223945535139492 -66.016854024140713 144.73383205149321 -78.599118304738127 -4.7612785219589750e-07 2.5925691789121942e-07 2.8885590400792031e-07 -78.572047351621364 3.5192165721495423e-08 -5.1362312736280558e-09 3.1258061810035542e-06 0.0016310345718553202 -1.3378817670114492e-11 1.2636681684365375e-11 -2.2301731221792440e-12 0.0016406157327086490 -35.172917262399999 -66.029770167599992 144.99959110400002 155.12084301790807 0.0000000000000000 0.0000000000000000 0.0000000000000000 0.0000000000000000 3.0134399468612965 3.0269197635213230 1.0134798520784576 1.0065912184972452 165.61795398450653 165.61795297854673 1.0067173950370358 
-50.480878115983025 -66.577687131366503 141.92475651142749 -50.480878115983025 -66.577687131366488 141.92475651142743 -79.570441552838616 -1.3905868141471769e-06 6.1027655788919019e-07 1.1953835239311580e-06 0.0000000000000000 4.6931284412507490e-08 -4.9473086322082693e-09 3.2781807535187117e-06 0.0016096790784339713 -7.8742528940261036e-12 -1.0318308681097909e-11 6.4122498860088775e-12 0.0000000000000000 -50.412828244765279 -66.590128188430739 142.20347059834828 136.07757377940416 0.0000000000000000 0.0000000000000000 0.0000000000000000 0.0000000000000000 3.0117488514859989 3.0235179797336529 1.0117691176402952 1.0060191642268284 163.57415596082726 163.57416426359939 1.0058671078380972 
-94.677076784384539 -158.78241748979008 77.048955114622046 -94.677076784384539 -158.78241748979008 77.048955114622032 -108.16202746928424 -1.8071285157163462e-06 -2.2878883264206759e-06 -3.4191051546951729e-06 -108.14126316033934 8.0937104718001294e-08 2.6112862261395975e-08 6.7972828532436580e-06 0.0018253357377567235 -6.9078886296706014e-12 2.1845081899333663e-11 4.3367781642484248e-11 0.0018463751439638349 -94.559718839999974 -158.71675115199997 77.626866652000004 109.98746742214213 0.0000000000000000 0.0000000000000000 0.0000000000000000 0.0000000000000000 3.0131563216455866 3.0263526983114608 1.0131964119558019 1.0066080077040114 216.45713870048027 216.39122529394191 1.0065765450537645 
-89.794049606576721 -158.53185928384750 81.882734936233234 -89.794049606576692 -158.53185928384752 81.882734936233220 -103.20380246465307 -6.4236919444644464e-06 -5.4003117388525681e-06 -7.0868998007370288e-06 -101.47957782581223 7.7179953225300912e-08 2.6028447314141445e-08 6.5350808469144539e-06 0.0017951057090137392 1.4805840634050697e-11 4.7486300774499094e-11 1.0962217891875589e-10 0.0018293832815949459 -89.682139475999989 -158.46640519600001 82.438353807199988 112.88451412247700 0.0000000000000000 0.0000000000000000 0.0000000000000000 0.0000000000000000 3.0132955494556675 3.0266296827908779 1.0133341653589256 1.0066080077040103 207.48818876326379 207.48680600531350 1.0066448757141002 
-102.83632751601795 -155.00650637671095 86.072690594959155 -102.83632751601802 -155.00650637671097 86.072690594959127 -102.67650218994358 -1.4851784029607905e-06 -1.1912987762430128e-06 -8.1024161699966082e-06 0.0000000000000000 8.7215057431241916e-08 2.4840910356482837e-08 6.3078022497498054e-06 0.0017870540726080072 3.5232851546682673e-11 2.2104161671421076e-11 2.1564495750933108e-11 0.0000000000000000 -102.70986659571734 -154.94403864466588 86.608986019839278 111.02505284862640 0.0000000000000000 0.0000000000000000 0.0000000000000000 0.0000000000000000 3.0134761056477255 3.0269945921883115 1.0135185228694212 1.0064309757791738 208.08180865962757 208.10525050087534 1.0067368382377857 
-100.53095357621055 -167.24674982309187 83.120163108710045 -100.53095357621062 -167.24674982309179 83.120163108710088 -106.29100620817553 -9.2477239696241265e-07 -1.5255962979380412e-06 -7.7059416891768284e-06 0.0000000000000000 8.5441240504566238e-08 2.8964148468535456e-08 6.4679581971427424e-06 0.0018106117473441201 2.1253744055881308e-11 2.8699185912362767e-11 3.1928292627433202e-11 0.0000000000000000 -100.40706467681501 -167.17391327890167 83.670075146830683 105.53983917324770 0.0000000000000000 0.0000000000000000 0.0000000000000000 0.0000000000000000 3.0132048876627233 3.0264502315906960 1.0132453794377450 1.0064663811436443 212.92321138680720 212.90058142641277 1.0066009414339370 
-114.76383024035580 -99.821571542234437 96.082130473832137 -114.76383024035583 -99.821571542234423 96.082130473832166 -92.953126791228826 -1.3415562936743849e-06 -1.7847195961330182e-06 -5.8097305857430240e-06 -93.638155143130888 9.6392422437131274e-08 6.2512502535527767e-09 5.7648534094179018e-06 0.0016805674129081649 8.2162326352691879e-12 2.8663464372177694e-11 5.9457590129775900e-11 0.0016846689303479598 -114.62406224400000 -99.805851428000011 96.572263865600007 85.211636250682801 0.0000000000000000 0.0000000000000000 0.0000000000000000 0.0000000000000000 3.0134864324204860 3.0270052481347443 1.0135187994327235 1.0059240794893314 190.53421299131259 190.54126650883885 1.0067363576365884 
-111.22338016243374 -91.105979036850385 99.748041753162497 -111.22338016243377 -91.105979036850385 99.748041753162482 -89.968611542260291 -6.2499799147864907e-07 -7.7668334972905906e-08 -6.4238225583915106e-06 -89.539519679227766 9.3668300218605074e-08 3.3153092354742952e-09 5.5660009053992709e-06 0.0016541171896544658 -1.9416448685129445e-12 1.2399055216664480e-12 4.1998893792394893e-11 0.0016528849976100190 -111.08756211600000 -91.097641973600034 100.22126851279998 99.535403830130534 0.0000000000000000 0.0000000000000000 0.0000000000000000 0.0000000000000000 3.0146828387652671 3.0294191550539087 1.0147363814537689 1.0063679170479853 187.72674693860196 187.69170097989263 1.0073420009244711 
-113.04219528356214 -97.669702135742071 107.95141728963294 -113.04219528356217 -97.669702135742057 107.95141728963291 -85.913050549467641 -5.4865660133378460e-07 -2.8738382139980433e-07 -5.4181598532660260e-06 -85.817648376205469 9.5067744459650938e-08 5.5263808668160053e-09 5.1210196369000371e-06 0.0016108215500843664 1.3339283965243891e-12 1.3207655753356156e-11 3.2521187726852201e-11 0.0016071081248703488 -112.90434805199999 -97.655804887999992 108.38681131359999 128.09762094244454 0.0000000000000000 0.0000000000000000 0.0000000000000000 0.0000000000000000 3.0135307876206250 3.0271102710362405 1.0135795307764204 1.0063441673392204 178.69088329599441 178.69044992873327 1.0067669284384220 
-107.28609165815941 -103.86034269814459 100.07846209928215 -107.28609165815941 -103.86034269814458 100.07846209928219 -89.218878233576149 -6.1983386140973047e-06 -5.4933978610290634e-07 -6.8644986999571774e-06 0.0000000000000000 9.0638828447939246e-08 7.6117555314336727e-09 5.5480776846028590e-06 0.0016484204096457896 1.0938896584683846e-10 7.8317171187806507e-12 5.4244957405964015e-11 0.0000000000000000 -107.15466629968294 -103.84120130723400 100.55016500991876 102.24201981555134 0.0000000000000000 0.0000000000000000 0.0000000000000000 0.0000000000000000 3.0107461328575296 3.0214877311902897 1.0107415450533468 1.0053332473703476 177.81786036295159 177.82325144556637 1.0053556426410497 
-26.941424585340478 -115.38951675128051 102.89552280866207 -26.941424585340464 -115.38951675128054 102.89552280866202 -49.160451849811516 6.0436640047737804e-06 4.1220733076140978e-06 -9.4170041687320132e-06 0.0000000000000000 -7.1017627127351699e-07 3.0030081965924846e-07 5.7543484552430724e-06 0.0016631218082652939 -1.0361157656282820e-10 -1.3406713902154628e-11 1.6411946912186950e-10 0.0000000000000000 -26.889884864405381 -115.37486796036181 103.37575244326078 96.382960025775517 0.0000000000000000 0.0000000000000000 0.0000000000000000 0.0000000000000000 3.0194671590827462 3.0390295518499357 1.0195624707433415 1.0097777019436687 124.87450374112281 124.87450408456472 1.0097336410249504 
-109.70245537459277 -103.64072871807934 151.96504009673222 -109.70245537459277 -103.64072871807934 151.96504009673222 -82.199223799568372 1.8458542374637810e-07 5.6966102310417381e-07 1.2101267298585101e-07 -82.426821685643276 9.2498052528186547e-08 7.5377804831244788e-09 2.7335588529409098e-06 0.0014993005218030479 1.0889666115960025e-12 3.4146302787059387e-13 3.7192460054274338e-12 0.0014987783382506500 -109.56833416800004 -103.62177336400003 152.19744990400002 70.302883591683823 0.0000000000000000 0.0000000000000000 0.0000000000000000 0.0000000000000000 3.0126124994306709 3.0252561980180861 1.0126437171467888 1.0063015986888526 170.04479947117710 170.04478529198786 1.0063021217471406 