# For a description of the Tecplot format see the Tecplot User's guide.
#
Variables=x,y,z,s_u,s_v,s_w,s_p,mono_f_vel_u,mono_f_vel_v,mono_f_vel_w,const,u_nu,v_nu,w_nu,p_nu,x_nu,y_nu,z_nu,const,u_ref,v_ref,w_ref,vol_ref,x_ref,y_ref,z_ref,const,I1,I2,I3,J,p1,p2,p3
Zone f=fepoint, n=3174, e=16683, et=brick, c=black
-25.4121 -154.953 106.639 -25.412094718531780 -154.95285984053720 106.63933228287398 -298.70737544413714 -2.9667826723570596e-05 -0.00011661745747729042 -0.00012275175108335045 -285.02872744534545 5.5788706987414108e-15 -5.8841820305133289e-15 1.0957101892472565e-09 -0.0068544042066689698 4.7941473102806778e-11 2.7569684275836034e-10 -1.2721473560906804e-10 -0.0068051021342737791 -24.903554063199991 -154.16086777200002 112.24023381839994 89.724962256112903 0.0000000000000000 0.0000000000000000 0.0000000000000000 0.0000000000000000 3.1861707066072071 3.3780845149382710 1.1918588127389154 1.0939018068362636 879.45632394417271 879.46357994501875 1.0916337516439474 
-38.177494177563901 -156.28608464990512 109.36638328200998 -38.177494177563879 -156.28608464990518 109.36638328200993 -246.31487135416731 9.5056266168255736e-05 -9.4081206057096485e-05 -6.1508498661444054e-05 0.0000000000000000 -1.0431134612687937e-07 2.0593450371295115e-07 -6.7308242779372149e-07 -0.0070600624830896496 -5.3421677295282947e-10 5.1353371857212632e-10 -4.1945766064038471e-10 0.0000000000000000 -37.438273663334591 -155.10473791080037 114.93291110338620 89.036758072416930 0.0000000000000000 0.0000000000000000 0.0000000000000000 0.0000000000000000 3.2502637769916580 3.5175699251274755 1.2675857817441920 1.1190830140774242 913.89098097952854 913.88631140993698 1.1259792532870561 
-32.146486509643331 -148.60281611980884 114.73410372134359 -32.146486509643317 -148.60281611980878 114.73410372134364 -210.51005385319351 2.9186401331230860e-05 -6.6620598798961718e-05 -2.3869030719801704e-05 0.0000000000000000 8.4099394115355608e-15 2.5535129566378600e-15 1.0030483110767818e-09 -0.0069401513395232588 -1.0548501035345645e-10 -5.0984538622547912e-13 1.0796331859107648e-10 0.0000000000000000 -31.542619574254449 -147.87907313389167 119.86135157363466 98.260374494724786 0.0000000000000000 0.0000000000000000 0.0000000000000000 0.0000000000000000 3.2106177946166672 3.4319925412028565 1.2214650276028221 1.1077494641276067 797.94342087116422 797.94306193401383 1.1050738787263013 
-29.209955698986676 -143.63776108843771 106.51642782969057 -29.209955698986693 -143.63776108843777 106.51642782969063 -209.43977843445100 3.2252805379323672e-05 -8.8097508158858410e-05 -5.4426189076875837e-05 0.0000000000000000 4.6351811278100286e-15 9.8809849191638932e-15 1.0971170638640617e-09 -0.0070173916325971452 -7.2337254016982690e-10 -3.6524760972848761e-11 -1.7986634297558913e-10 0.0000000000000000 -28.647655777685479 -142.96738158566356 112.12452093910819 112.69127588814607 0.0000000000000000 0.0000000000000000 0.0000000000000000 0.0000000000000000 3.2206458197863559 3.4541134850819093 1.2336671441730898 1.1082748960818878 807.95806545213452 807.95631255704586 1.1107091816119590 
-24.761187162070851 -201.72687007705488 65.732013141007926 -24.761187162070851 -201.72687007705488 65.732013141007926 -885.66435880322877 5.6018926032828625e-06 5.3079256811836555e-07 3.6009423744843625e-06 -890.27886056217881 3.1918911957973243e-15 3.4416913763379853e-15 1.5639844974657537e-09 -0.0067338801345820827 -4.5469559559307965e-12 -3.0430388654542457e-14 -1.1614787005801835e-12 -0.0067336981224044223 -24.261860196399997 -200.43215969199997 73.726546483199982 142.71380061529433 0.0000000000000000 0.0000000000000000 0.0000000000000000 0.0000000000000000 3.1791535677053839 3.3654745206893755 1.1864024100067085 1.0891064360745528 1909.6214259080396 1909.6308586110665 1.0892214329476622 
-24.655224816294321 -188.79479658511971 67.413753459817030 -24.655224816294321 -188.79479658511971 67.413753459817030 -870.89574662816062 2.0141149877924551e-05 -2.6998225793894888e-05 -8.5264122246491530e-06 -876.33315435602731 5.6898930012039273e-15 1.2212453270876724e-15 1.5447305656834946e-09 -0.0067353625801772595 -1.9820074749353657e-12 -5.5420415719850896e-13 -8.0866000372326808e-13 -0.0067363628703928629 -24.157397762799999 -187.63907770800003 75.309882232799993 165.73632395326644 0.0000000000000000 0.0000000000000000 0.0000000000000000 0.0000000000000000 3.1791850965671258 3.3654886362645948 1.1863833901742189 1.0891064360745528 1884.9663403299733 1884.9439179829837 1.0892104166553067 
-35.537408190487035 -196.65149008563168 74.091275776447333 -35.537408190487014 -196.65149008563176 74.091275776447276 -862.32035497574805 9.2579235671916246e-06 -2.1128672226449014e-05 -4.1530930729234206e-05 0.0000000000000000 7.6327832942979512e-15 -3.2196467714129540e-15 1.4682868254567440e-09 -0.0067367910401241711 -9.9671107224103131e-12 1.3242470082116790e-11 -2.5132680385298782e-11 0.0000000000000000 -34.885542273181727 -195.41132893576267 81.596679120775832 139.46796289390394 0.0000000000000000 0.0000000000000000 0.0000000000000000 0.0000000000000000 3.1775404319259022 3.3621686936544424 1.1847098257751292 1.0874733227745370 1867.0339716701269 1867.0266833054573 1.0884421643929585 
-19.243828930901120 -195.76028262034717 73.896133170693034 -19.243828930901135 -195.76028262034717 73.896133170693048 -878.58147829112374 1.0253333201207134e-05 -1.3540387315197112e-05 -1.9467500065752064e-05 0.0000000000000000 2.6922908347160046e-15 -1.8873791418627661e-15 1.4705197060038699e-09 -0.0067319578493857070 2.3079078675144290e-12 1.5762074841429535e-12 -2.2182270587292966e-12 0.0000000000000000 -18.822600960987238 -194.52970000168264 81.412954998504986 111.95285379220412 0.0000000000000000 0.0000000000000000 0.0000000000000000 0.0000000000000000 3.1794900652314868 3.3661357521425725 1.1867268276466905 1.0891064360745533 1905.9420096889969 1905.9626191362991 1.0893716836895813 
-23.140366085253639 -103.44631874722894 33.349322543104918 -23.140366085253643 -103.44631874722894 33.349322543104911 -847.58487597766134 -2.6950817635536511e-05 3.1877015038950310e-05 -4.3530317769827492e-05 -856.67726636530904 3.8025138593411604e-15 1.8873791418627657e-15 1.9346693136412796e-09 -0.0066655898248741399 6.9337293937333983e-12 -9.5384284492995663e-12 1.2230789875029991e-11 -0.0066640104707005685 -22.663982073999996 -103.20790935200000 43.238681550399988 69.202643319072678 0.0000000000000000 0.0000000000000000 0.0000000000000000 0.0000000000000000 3.1787998469144871 3.3647311693348518 1.1860121987633168 1.0891064360745528 1845.1369787832768 1844.8591264384054 1.0890432312081668 
-30.735555694072431 -111.09370906045552 37.332464709832891 -30.735555694072442 -111.09370906045548 37.332464709832891 -824.39670445700369 1.9584570945424509e-06 4.9800302907158392e-05 -5.9003245745905929e-05 -817.36165132378153 6.2450045135165063e-15 1.4432899320127035e-15 1.8890720099307146e-09 -0.0066715743224925080 -2.3977907764745295e-12 -1.5529692161881288e-11 1.3552098973619888e-11 -0.0066818593437621742 -30.151660686400003 -110.77310694400001 46.988755992800002 74.715282964229786 0.0000000000000000 0.0000000000000000 0.0000000000000000 0.0000000000000000 3.1796740856148706 3.3665069583892726 1.1869138391850367 1.0891064360745533 1800.8811423830764 1800.9144449788803 1.0894595218045351 
-19.155122633573939 -103.80935961054885 40.539800576285188 -19.155122633573939 -103.80935961054887 40.539800576285188 -807.27134239297459 -3.2996748901914265e-05 2.5952527653507897e-05 -6.2581309184541199e-05 -808.97492205057017 2.6922908347160046e-15 -7.7715611723760958e-16 1.8523564904171508e-09 -0.0066768390370036705 7.5221644669271034e-12 9.6280235892643036e-13 1.5710754073171339e-11 -0.0066774400861206963 -18.735150314000002 -103.56704831999998 50.008419303199993 79.719497061372692 0.0000000000000000 0.0000000000000000 0.0000000000000000 0.0000000000000000 3.1788743460162157 3.3648787745455784 1.1860852244188558 1.0891064360745519 1773.0124367647866 1772.9323070257196 1.0890754250580008 
-26.008867288662138 -98.674714266817190 41.574142218441054 -26.008867288662142 -98.674714266817176 41.574142218441040 -819.08770539105512 1.4850160725803912e-06 1.1621895570324520e-05 -9.6809887947010137e-05 0.0000000000000000 4.8017145815038012e-15 -9.9920072216264089e-16 1.8405152957257085e-09 -0.0066755964032285406 3.3072238081464292e-12 -5.1111445141858532e-12 3.4612543491964149e-11 0.0000000000000000 -25.491879232152165 -98.487589184379729 50.982237960580505 72.292163684038698 0.0000000000000000 0.0000000000000000 0.0000000000000000 0.0000000000000000 3.1787222541727775 3.3646039339724325 1.1859633655345749 1.0891064360745522 1791.3116132699211 1791.5698852578496 1.0890175583744546 
-25.920693058238406 -104.38059630496953 102.89720834715794 -25.920693058238392 -104.38059630496949 102.89720834715796 -200.24650115566538 2.8428148449094349e-05 9.4406406494567028e-05 -1.0490488068732645e-05 0.0000000000000000 -7.0724975540426153e-08 -1.7203814215822232e-07 -8.8603577309266247e-07 -0.0065560481988262594 5.1247001093937508e-10 1.1012351982059309e-10 -1.8596586361872757e-09 0.0000000000000000 -25.283559732051039 -104.23282252886388 108.75695162467670 96.378087069502698 0.0000000000000000 0.0000000000000000 0.0000000000000000 0.0000000000000000 3.2125935107130212 3.4349662846043567 1.2223687119433679 1.1108780916644392 762.54587484170031 762.54064130107156 1.1054821980605529 
-26.581026093170813 -118.30821543900895 104.88427450383726 -26.581026093170831 -118.30821543900899 104.88427450383730 -140.89204636848885 3.9515997244290357e-05 3.9714888334090234e-06 -3.3135524466089617e-05 0.0000000000000000 3.0078110911508395e-08 -6.5759363786402216e-07 -1.2924693893362834e-06 -0.0066507780713055079 5.6723520969873882e-10 -6.2461158785838444e-10 -1.1397635345550107e-09 0.0000000000000000 -25.913646985361510 -118.01095136745833 110.66456878241424 88.846747377876298 0.0000000000000000 0.0000000000000000 0.0000000000000000 0.0000000000000000 3.2773063142020971 3.5736290502495796 1.2966219485694801 1.1297319532644186 780.42535491872422 780.42596846455149 1.1388204613768389 
-37.234153780769624 -112.73585060873187 106.38723468796616 -37.234153780769624 -112.73585060873178 106.38723468796616 -145.68297647795740 -3.2161633316508353e-05 4.8335512843151386e-05 2.9497558125167904e-05 0.0000000000000000 -4.0330904832469633e-07 -7.5215888916744605e-07 -1.5871086619035734e-06 -0.0063779892206433965 -3.5128404517771720e-10 -7.5392054879566485e-11 1.5729955015731595e-10 0.0000000000000000 -36.236867317722961 -112.72601430119678 112.03758904139967 95.996160021407249 0.0000000000000000 0.0000000000000000 0.0000000000000000 0.0000000000000000 3.2838189539576077 3.5879393636805728 1.3044956112079216 1.1367291608020653 802.75369717136959 802.75404820903339 1.1421628621730369 
-34.224585047584540 -105.02397929319957 99.432833700947782 -34.224585047584554 -105.02397929319963 99.432833700947825 -195.73057112862207 1.1884234037135842e-06 0.00010703104053286318 -1.4415872730255785e-05 0.0000000000000000 -1.5512231361062894e-07 -2.1505873242310053e-07 -1.3791894600929900e-06 -0.0066731590004071055 5.4981083101585799e-10 2.3038883442901904e-10 -9.5288666376134639e-10 0.0000000000000000 -33.380789828628046 -105.09637623893835 105.63342596379557 85.433794965156210 0.0000000000000000 0.0000000000000000 0.0000000000000000 0.0000000000000000 3.2577635542258845 3.5302119065838311 1.2725742771617992 1.1224904039713264 811.44400578072975 811.44032709856162 1.1280634627256854 
-113.98167811805652 -161.52611984200698 119.83552539299342 -113.98167811805654 -161.52611984200695 119.83552539299346 -514.24040674879086 5.1660221222454258e-06 -1.6207534818464457e-05 -3.8828268953382170e-05 -512.33088808233617 2.0511370379949767e-14 1.2101430968414206e-14 9.4464702726781959e-10 -0.0066560235489187781 6.8588986841525938e-12 -1.9230103532033431e-11 -7.3786834780556725e-11 -0.0066483989978231434 -112.21942232800005 -160.66347960400000 124.66427103520003 147.55923210393107 0.0000000000000000 0.0000000000000000 0.0000000000000000 0.0000000000000000 3.1920150840747890 3.3935769956243003 1.2016965495338181 1.0891064360745524 1288.6420730873799 1288.6420721405616 1.0963550982416161 
-101.11271119176209 -158.92942035688523 111.25395767116805 -101.11271119176213 -158.92942035688523 111.25395767116802 -532.31807216432367 -3.5575486928988467e-05 -2.7597269952772464e-05 -7.2899658051538588e-05 0.0000000000000000 9.8532293435482659e-15 8.9928064994637680e-15 1.0428919949845294e-09 -0.0067223440448794377 2.6643581326024961e-11 2.6725508758036520e-11 -4.2865094030045573e-11 0.0000000000000000 -99.532617471171264 -158.09468895943013 116.58484116745363 117.70414803503969 0.0000000000000000 0.0000000000000000 0.0000000000000000 0.0000000000000000 3.1484355000753377 3.2951238451434652 1.1465065131803731 1.0740028996385218 1229.5345626001556 1229.5345733183128 1.0706328013382029 
-105.99171933213977 -149.58932561815359 115.82855288733407 -105.99171933213981 -149.58932561815354 115.82855288733404 -497.12553497233085 -2.9894583744462343e-05 -3.1378055791122133e-05 -3.3167127845565829e-05 0.0000000000000000 1.2295719997723609e-14 -6.1062266354383610e-15 9.9051788993165246e-10 -0.0066714435697783478 6.8380495653578985e-11 -3.9916450205752055e-11 -7.1008801868050852e-11 0.0000000000000000 -104.34256255272837 -148.85497981259945 120.89176065121424 119.29379793442074 0.0000000000000000 0.0000000000000000 0.0000000000000000 0.0000000000000000 3.1491880849495191 3.2997775459536980 1.1505619347695142 1.0753391226102675 1172.6140454694503 1172.6140393501553 1.0724943850188096 
-102.12483010347617 -163.16329096489113 119.73307506065380 -102.12483010347616 -163.16329096489116 119.73307506065383 -507.87022639167299 -1.9121223283345893e-05 -4.1988410310821071e-05 -3.5419214106138297e-05 0.0000000000000000 1.4738210651898953e-14 9.4368957093138306e-15 9.4583185727969976e-10 -0.0066765429666967250 5.1083258218763584e-11 -1.4869819031510348e-11 -7.6476369220671245e-11 0.0000000000000000 -100.53040969477119 -162.28305471776312 124.56781543385799 141.51484144144280 0.0000000000000000 0.0000000000000000 0.0000000000000000 0.0000000000000000 3.1525193358099570 3.3083821042082109 1.1558542155624036 1.0764089058892168 1198.0628929460079 1198.0628872955231 1.0750076589925834 
-79.677198543441818 -149.53115862559389 82.430800643770553 -79.677198543441818 -149.53115862559389 82.430800643770553 -553.53810266205903 -8.6885912315724437e-05 -6.2790123943493137e-05 -3.0314270211027739e-05 -554.57670891164548 8.2989171090730451e-15 4.1078251911130800e-15 1.3728218561936956e-09 -0.0068149720364928329 7.3850595947902023e-11 1.7095932222974552e-11 1.3462618639572988e-11 -0.0068521925700691516 -78.400527573600002 -148.79743798799998 89.448228916799977 108.06316173413846 0.0000000000000000 0.0000000000000000 0.0000000000000000 0.0000000000000000 3.1912957010686180 3.3908203049908558 1.1996414504119417 1.0891064360745528 1358.4718431062099 1358.4723892843047 1.0953961236270113 
-81.451144720781912 -163.41761397933558 80.651466305173045 -81.451144720781926 -163.41761397933561 80.651466305173031 -689.84879788543537 -4.9738984021184222e-05 -0.00010339677649728438 -5.6254490817141535e-05 -694.78733022010431 1.8957058145474548e-14 -3.4416913763379849e-15 1.3932019982121346e-09 -0.0067556526565349783 1.2306647771538474e-11 5.3582771903955505e-11 1.8603239386647187e-11 -0.0067500357333012788 -80.149363288800018 -162.53464431600008 87.773009718400019 109.57810873427631 0.0000000000000000 0.0000000000000000 0.0000000000000000 0.0000000000000000 3.1928847081150256 3.3935424652744923 1.2007478050166467 1.0891064360745537 1598.4650703214977 1598.4582523885113 1.0959373552993710 
-85.656791578242562 -161.04186897692867 88.299144488460485 -85.656791578242533 -161.04186897692861 88.299144488460527 -627.27271725367439 -3.4960612480927552e-05 -7.0661783305791791e-05 -0.00010376308349494670 0.0000000000000000 9.8532293435482627e-15 -4.5519144009631426e-15 1.3056471459549359e-09 -0.0067678011031653941 3.3949045047563435e-11 6.3686299843491464e-12 -7.3363474622023055e-12 0.0000000000000000 -84.295478612813938 -160.18443337667750 94.973195224810283 106.11323630727971 0.0000000000000000 0.0000000000000000 0.0000000000000000 0.0000000000000000 3.1455925930265787 3.2964805858552024 1.1509280742190737 1.0755617947248459 1387.6374547382222 1387.6380491771858 1.0726010945362885 
-87.866603857450031 -152.15203848020141 85.815082926556997 -87.866603857450002 -152.15203848020147 85.815082926556954 -601.60802402000138 -4.0516774784134822e-05 -9.1902288248512721e-05 -9.9245756732538139e-05 0.0000000000000000 1.8957058145474548e-14 -1.2989609388114332e-14 1.3340830662400549e-09 -0.0068147979110719714 -3.9657201939011866e-11 8.3991148883889701e-11 -1.7800433560216407e-11 0.0000000000000000 -86.474010682800568 -151.39014911596544 92.634484883397832 94.367740677547317 0.0000000000000000 0.0000000000000000 0.0000000000000000 0.0000000000000000 3.1625524991222469 3.3316370270729565 1.1691669721889932 1.0786751020771654 1371.2371955325068 1371.2393163922136 1.0812814635958856 
-26.543208259460449 -132.98680007727458 134.68476010922259 -26.543208259460453 -132.98680007727461 134.68476010922262 -290.26778185577609 2.8752911709385886e-05 -2.4496000442200666e-05 0.00011223354103682643 -308.33949978670995 6.4115379672102790e-15 -3.4416913763379853e-15 7.7466921766244923e-10 -0.0064484464145125181 -9.5123304334831504e-11 9.8110449842576626e-12 1.2002480848111880e-10 -0.0064059248721344492 -26.018656529999991 -132.43089511199997 138.64462455200004 49.421240865332216 0.0000000000000000 0.0000000000000000 0.0000000000000000 0.0000000000000000 3.1769835116304042 3.3606520609454642 1.1837524326245887 1.0945618709327831 869.25405078271785 869.25404452890859 1.0880707033165093 
-33.112994914649811 -134.52929675111892 133.57834548772499 -33.112994914649796 -134.52929675111895 133.57834548772504 -274.55446786048520 -2.2483230748144804e-06 2.0397718182197216e-05 6.0909110961374464e-05 -219.40296217076420 8.0768725041480154e-15 9.6589403142388635e-15 7.8734174735473051e-10 -0.0065444687733943437 -1.2733656019760634e-10 -1.8132173380188087e-10 -1.4529351289029380e-10 -0.0062515413329063798 -32.495446914399992 -133.95681332000001 137.60295016000006 48.530522504776933 0.0000000000000000 0.0000000000000000 0.0000000000000000 0.0000000000000000 3.2202542025334764 3.4526904710580761 1.2326070239306501 1.1097147540571835 925.98271617665171 925.98271101797252 1.1101175687908797 
-28.977209217936490 -137.03822604203418 136.45366498467445 -28.977209217936490 -137.03822604203421 136.45366498467450 -291.32394993363084 3.2476523298901802e-05 2.5408798647491878e-05 3.5715724285462449e-05 -307.15060343242737 5.1347814888913490e-15 2.5535129566378600e-15 7.5441874969328637e-10 -0.0065275537842632630 -3.1005542027594322e-11 -8.2535746323172208e-11 -1.2448719126974909e-10 -0.0065288454193249681 -28.418203856399998 -136.43877710800004 140.31002455199999 44.353383947079159 0.0000000000000000 0.0000000000000000 0.0000000000000000 0.0000000000000000 3.1857083835288074 3.3785040836897711 1.1928614340553945 1.0987657784041058 889.78594119928084 889.78586153556944 1.0921547483166323 
-27.303681833099009 -130.02581800824572 140.21188131832091 -27.303681833099017 -130.02581800824569 140.21188131832093 -315.24433062776319 1.5784230885941486e-05 1.9173351002894638e-05 2.0532292985383865e-05 0.0000000000000000 6.8001160258290830e-15 9.2148511043887993e-15 7.1140071611353051e-10 -0.0064597187419902780 -5.3767873534047215e-11 -4.1318353653284240e-11 -6.8721846936178353e-12 0.0000000000000000 -26.768365491316434 -129.50173712462359 143.84833436668455 49.139845408488213 0.0000000000000000 0.0000000000000000 0.0000000000000000 0.0000000000000000 3.1901310498554718 3.3895220490611853 1.1995098693113915 1.0992627928794274 948.85697745701884 948.85698749714493 1.0951886459262428 
-40.795050522522999 -65.304539681333864 150.94495826154622 -40.795050522522999 -65.304539681333850 150.94495826154619 -463.32825841045513 -1.3251467175243302e-05 -1.0412027697941799e-06 2.4726101472935299e-05 -467.54092981878063 7.1886940844478902e-15 2.3314683517128287e-15 5.8853366624589398e-10 -0.0064748250665927643 -2.4330817630165090e-12 -4.5348358883361364e-12 1.9774176938323291e-11 -0.0064730755691526608 -40.068761925200000 -65.476070995999990 153.95338104800004 156.95717166164070 0.0000000000000000 0.0000000000000000 0.0000000000000000 0.0000000000000000 3.1749163969467040 3.3569719321349889 1.1821484382376197 1.0865967471114857 1166.7397326082614 1166.7312432226320 1.0872739232710218 
-53.330487406889141 -59.421009876253535 145.96393440085882 -53.330487406889127 -59.421009876253528 145.96393440085879 -470.76662910093074 -1.5338043814430130e-05 -3.1712592340992572e-06 1.8071542376508540e-05 -472.95155433870144 8.0768725041480138e-15 2.3314683517128287e-15 6.4555649714748142e-10 -0.0064765120002049587 -1.0781287581540149e-11 3.5745908360921007e-12 -2.5783556819800419e-12 -0.0064758525119823088 -52.426757905599978 -59.655776269200025 149.26381449600007 118.05125250056595 0.0000000000000000 0.0000000000000000 0.0000000000000000 0.0000000000000000 3.1826161420513368 3.3731640239154612 1.1906483660552927 1.0869463898489859 1194.8668268356128 1194.9069594321827 1.0911873237849856 
-35.828909421366582 -65.864254563839154 141.43468884536188 -35.828909421366582 -65.864254563839154 141.43468884536190 -448.81553089323518 -3.4691306149449223e-06 1.9603775924123754e-06 5.2986826933008523e-07 -448.56828896187443 3.8580250105724190e-15 -2.8865798640254066e-15 6.9739414243485953e-10 -0.0064652928058576611 -8.8358808623653943e-12 8.4553027117153833e-12 -1.1177203008160012e-11 -0.0064584333521202726 -35.172917262399999 -66.029770167599992 144.99959110400002 155.12084301790807 0.0000000000000000 0.0000000000000000 0.0000000000000000 0.0000000000000000 3.1806807526310452 3.3683808954102372 1.1877801491336935 1.0886354393557416 1153.7916144328990 1153.7863999027343 1.0898556938906512 
-51.287640962126886 -66.430700641198882 138.46478900460389 -51.287640962126915 -66.430700641198882 138.46478900460394 -458.10563233747058 -1.4880752593467897e-05 9.3697687415248433e-06 1.0583509419756856e-05 0.0000000000000000 8.7430063189231093e-15 -3.4416913763379853e-15 7.3140249412517733e-10 -0.0064782954130049586 -1.1401743948021060e-11 1.6681489759307837e-12 -1.1271436400814371e-11 0.0000000000000000 -50.412828244765279 -66.590128188430739 142.20347059834828 136.07757377940416 0.0000000000000000 0.0000000000000000 0.0000000000000000 0.0000000000000000 3.1622856570036220 3.3287049023536830 1.1664136071266926 1.0820715230659834 1131.5576345934448 1131.5569847384725 1.0799789467714558 
-96.068409751442331 -159.55824099611269 69.874738829979677 -96.068409751442317 -159.55824099611272 69.874738829979691 -816.93825738187638 -2.0815413146467978e-05 -3.0646301171221592e-05 -4.3744980690522476e-05 -817.55559437132626 1.3627987627273797e-14 -8.7707618945387367e-15 1.5165646516379638e-09 -0.0067750937693464939 -2.7047024730656400e-11 3.4826006837197220e-11 -1.1414032544814231e-11 -0.0067685237368369051 -94.559718839999974 -158.71675115199997 77.626866652000004 109.98746742214213 0.0000000000000000 0.0000000000000000 0.0000000000000000 0.0000000000000000 3.1781547405854336 3.3634115671470330 1.1853381010242237 1.0891064360745517 1789.4154712396846 1788.8222706108124 1.0887271510654359 
-91.120796209337129 -159.30517513556009 74.985260678789132 -91.120796209337158 -159.30517513556012 74.985260678789146 -757.10083154216420 -7.5389762033476759e-05 -7.0296764956314010e-05 -8.9279541651672797e-05 -737.94054154346964 9.4091401336982017e-15 9.2148511043887993e-15 1.4580567864186378e-09 -0.0067636419867951646 -2.1539904008103394e-11 6.0016601844162255e-11 2.9054419400461884e-12 -0.0067660809732502623 -89.682139475999989 -158.46640519600001 82.438353807199988 112.88451412247700 0.0000000000000000 0.0000000000000000 0.0000000000000000 0.0000000000000000 3.1802790439898923 3.3674158860366812 1.1872107228069910 1.0891064360745519 1681.1343064924195 1681.2508471091605 1.0895704333283462 
-104.33558049272507 -155.74453953857440 79.415098348210407 -104.33558049272507 -155.74453953857443 79.415098348210435 -747.20275324977922 -1.7630398482679951e-05 -1.6866007475161573e-05 -0.00010011478544997863 0.0000000000000000 1.2961853812498703e-14 -1.4432899320127035e-15 1.4073524567947968e-09 -0.0067985298954235584 -2.5597803485303708e-11 4.3974667948217638e-11 -1.9840297990424564e-11 0.0000000000000000 -102.70986659571734 -154.94403864466588 86.608986019839278 111.02505284862640 0.0000000000000000 0.0000000000000000 0.0000000000000000 0.0000000000000000 3.1819960398020286 3.3714621371883213 1.1895493893299538 1.0868092174867214 1681.7758624464693 1681.8985133494157 1.0907065538772189 
-101.99971404986653 -168.10728666744416 76.293533696004744 -101.99971404986657 -168.10728666744407 76.293533696004744 -794.12261419275922 -9.7412050068675563e-06 -2.1460940630668026e-05 -9.6173671093113076e-05 0.0000000000000000 1.8957058145474551e-14 -4.7739590058881731e-15 1.4430767691919755e-09 -0.0067546641515798967 -2.6392142233668766e-11 2.2927591919561385e-11 -2.1266929498594891e-11 0.0000000000000000 -100.40706467681501 -167.17391327890167 83.670075146830683 105.53983917324770 0.0000000000000000 0.0000000000000000 0.0000000000000000 0.0000000000000000 3.1785814416543210 3.3643107257973144 1.1858105700889039 1.0872457036808048 1745.6661211530443 1745.4149668099201 1.0889544393918094 
-116.42084478751111 -100.00729888070946 89.997595500154475 -116.42084478751114 -100.00729888070943 89.997595500154461 -615.81736331821685 -1.6714835436465890e-05 -2.3858274398325887e-05 -7.1708928506409656e-05 -624.19538041036049 1.3169160963203034e-14 6.5503158452884244e-15 1.2862066967045391e-09 -0.0068760660420714628 -1.6227485319387376e-11 -1.3818045326801626e-11 -9.3867868563492189e-11 -0.0068783535313272923 -114.62406224400000 -99.805851428000011 96.572263865600007 85.211636250682801 0.0000000000000000 0.0000000000000000 0.0000000000000000 0.0000000000000000 3.1837989795206902 3.3739759654611103 1.1901669253569656 1.0807332964816156 1447.2594775805444 1447.2592055008533 1.0909064035748042 
-112.83356621771651 -91.204478357217894 93.873386367801032 -112.83356621771647 -91.204478357217880 93.873386367801018 -579.08277000997384 -7.2749972154002972e-06 -1.1627632168769809e-06 -7.7704451130776697e-05 -574.06897254686453 1.3627987627273798e-14 1.5543122344752192e-15 1.2418439609973575e-09 -0.0068409315524565594 -1.1863467321858586e-12 2.0706328316664464e-11 -1.0615362125116364e-10 -0.0068252630955652994 -111.08756211600000 -91.097641973600034 100.22126851279998 99.535403830130534 0.0000000000000000 0.0000000000000000 0.0000000000000000 0.0000000000000000 3.1955725512973712 3.4000511616389848 1.2046129310443485 1.0858890533633263 1406.1270951917361 1406.1276655445943 1.0976418800678194 
-114.67643827150681 -97.833892980463119 102.54641895519501 -114.67643827150685 -97.833892980463119 102.54641895519498 -528.69767936154460 -7.2887371643329855e-06 -5.2338386225263483e-06 -6.9394397227825333e-05 -527.95810320415762 1.7846835120849391e-14 -2.3314683517128283e-15 1.1425598245295987e-09 -0.0067617169683934619 -3.2390170415829748e-11 -6.7160250031971002e-11 -1.2569702445510071e-10 -0.0067597000145576116 -112.90434805199999 -97.655804887999992 108.38681131359999 128.09762094244454 0.0000000000000000 0.0000000000000000 0.0000000000000000 0.0000000000000000 3.1820050446968722 3.3724255756177097 1.1905267333588454 1.0859471969302301 1298.5138964715832 1298.5151634843971 1.0911174214047163 
-108.84420035642137 -104.08649115581515 94.222723834639311 -108.84420035642141 -104.08649115581512 94.222723834639353 -570.70721747327332 -7.9462682251090874e-05 -7.6376451425829459e-06 -8.2434047099967010e-05 0.0000000000000000 1.5848433676524113e-14 3.2196467714129544e-15 1.2378507108223857e-09 -0.0068643383133223466 3.4487120981856996e-11 -4.9491583407759327e-11 -8.8029776118353511e-11 0.0000000000000000 -107.15466629968294 -103.84120130723400 100.55016500991876 102.24201981555134 0.0000000000000000 0.0000000000000000 0.0000000000000000 0.0000000000000000 3.1526924715120264 3.3057957388580617 1.1530120187608430 1.0734207477282971 1301.3536411830839 1301.3535737384634 1.0736787839637367 
-27.504504711310421 -115.63313532926209 96.995714152817925 -27.504504711310435 -115.63313532926212 96.995714152817968 -174.31987657809123 6.0816034640649658e-05 2.5388580913257268e-05 -8.3213711973053543e-05 0.0000000000000000 2.1470925007198520e-08 -6.0436182193057716e-07 -1.1266553895604931e-06 -0.0070558820278314805 7.2376166189223404e-11 -3.8596417682185927e-10 -1.0204377854500468e-09 0.0000000000000000 -26.889884864405381 -115.37486796036181 103.37575244326078 96.382960025775517 0.0000000000000000 0.0000000000000000 0.0000000000000000 0.0000000000000000 3.2464255200507592 3.5078774615263915 1.2616460954494457 1.1227153943614023 777.21918902284244 777.21783233496524 1.1232047274798942 
-111.29252460503729 -103.86467921936107 149.07989571706477 -111.29252460503727 -103.86467921936107 149.07989571706474 -477.52152413825058 1.5724062700221485e-06 5.3345794920729535e-06 4.7141368392056809e-07 -479.69969459355519 9.8532293435482659e-15 3.6637359812630166e-15 6.0989790995336090e-10 -0.0064687971180197928 -3.0740784046463252e-12 -8.4288638955199772e-12 -2.0416687438668033e-12 -0.0064627490032712724 -109.56833416800004 -103.62177336400003 152.19744990400002 70.302883591683823 0.0000000000000000 0.0000000000000000 0.0000000000000000 0.0000000000000000 3.1722793230080293 3.3503618647165614 1.1781322205804750 1.0856143185162188 1186.0904513069431 1186.0903936351422 1.0854319511166675 