# For a description of the Tecplot format see the Tecplot User's guide.
#
Variables=x,y,z,s_u,s_v,s_w,s_p,mono_f_vel_u,mono_f_vel_v,mono_f_vel_w,const,u_nu,v_nu,w_nu,p_nu,x_nu,y_nu,z_nu,const,u_ref,v_ref,w_ref,vol_ref,x_ref,y_ref,z_ref,const,I1,I2,I3,J,p1,p2,p3
Zone f=fepoint, n=3174, e=16683, et=brick, c=black
-25.1156 -154.492 109.968 -25.115561202085885 -154.49170834433048 109.96769020794234 -176.67475646489973 -1.2908092217272342e-05 -5.3604893254666364e-05 -5.4929130169860583e-05 -171.84137788446782 3.5780614582314740e-11 1.8572199333988237e-11 1.1170538272153863e-07 0.00014154234996535344 1.4415166067282228e-12 1.1727950708228571e-11 -2.2993127490594674e-11 0.00014034916378183860 -24.903554063199991 -154.16086777200002 112.24023381839994 89.724962256112903 0.0000000000000000 0.0000000000000000 0.0000000000000000 0.0000000000000000 3.0746533034845318 3.1502240483818245 1.0755659702380156 1.0383090107903012 456.45908764442015 456.45905774207108 1.0370818709839031 
-37.753738192974673 -155.60590476032323 112.67618682804495 -37.753738192974659 -155.60590476032311 112.67618682804502 -152.15155512710635 4.3024642674217670e-05 -4.6977681533590821e-05 -2.8565626102270224e-05 0.0000000000000000 -1.5444094721673156e-08 -1.1899408322480410e-07 1.3409780416894349e-07 0.00014748342720705422 3.2025488873731636e-12 -3.5158226578606806e-12 -1.4910879031856079e-11 0.0000000000000000 -37.438273663334591 -155.10473791080037 114.93291110338620 89.036758072416930 0.0000000000000000 0.0000000000000000 0.0000000000000000 0.0000000000000000 3.1040102483092213 3.2110062586452743 1.1070167171010004 1.0493350792110967 473.78581891141818 473.78617355786633 1.0521695488590703 
-31.794367590656528 -148.18140386824263 117.78099106880343 -31.794367590656524 -148.18140386824268 117.78099106880339 -135.42776330369568 1.4127888330415311e-05 -3.4129001799342533e-05 -7.9643865687849580e-06 0.0000000000000000 4.2489636808973337e-11 1.6961265725257135e-11 1.0225873747771176e-07 0.00014310672994454659 4.8887507697378410e-12 -7.7892666748553101e-12 1.2549011254843917e-11 0.0000000000000000 -31.542619574254449 -147.87907313389167 119.86135157363466 98.260374494724786 0.0000000000000000 0.0000000000000000 0.0000000000000000 0.0000000000000000 3.0865782102359693 3.1750105893660208 1.0884386090680804 1.0445445915403497 419.58955682623252 419.58935337001810 1.0432573047432536 
-28.882074788753616 -143.24742067593633 109.84905937603301 -28.882074788753613 -143.24742067593627 109.84905937603300 -133.75796207419157 1.6955501654717088e-05 -4.1917934398546573e-05 -2.8678399166338697e-05 0.0000000000000000 3.9564726495022746e-11 1.5702827926844520e-11 1.1184880666093022e-07 0.00014626023005587783 1.0831567745882460e-11 -1.6849587342498019e-11 -3.9849545538916240e-12 0.0000000000000000 -28.647655777685479 -142.96738158566356 112.12452093910819 112.69127588814607 0.0000000000000000 0.0000000000000000 0.0000000000000000 0.0000000000000000 3.0911867520198473 3.1846304498932958 1.0934588214465786 1.0447637117224879 422.46056480018467 422.46054255859292 1.0456854111538052 
-24.470026210760018 -200.97300188197914 70.482796249393616 -24.470026210760015 -200.97300188197914 70.482796249393616 -429.81451332528957 1.8295311331521017e-06 8.3710217422048598e-08 1.3287575517229032e-06 -431.70620647115453 3.5135630516158756e-11 3.0331570588515433e-11 1.5944439990533965e-07 9.2343826406780552e-05 -2.6312653979026784e-12 -4.8414875310959558e-13 -6.3792567577645796e-13 9.2565464427428419e-05 -24.261860196399997 -200.43215969199997 73.726546483199982 142.71380061529433 0.0000000000000000 0.0000000000000000 0.0000000000000000 0.0000000000000000 3.0722639704085122 3.1457195986745501 1.0734612391327045 1.0360348292494324 900.96179577129271 900.96174532224200 1.0360798256463501 
-24.364938473979645 -188.12185867254379 72.106059263127349 -24.364938473979642 -188.12185867254379 72.106059263127349 -423.55407678960728 7.9115933681385571e-06 -1.1102158055278326e-05 -3.4386836280895527e-06 -425.64320885002383 3.5027550304711497e-11 2.7090496512727220e-11 1.5748180270946932e-07 9.3159124900111596e-05 -2.1890962689285713e-12 -8.2636226979244823e-13 -5.1004083459124754e-13 9.3875765114236322e-05 -24.157397762799999 -187.63907770800003 75.309882232799993 165.73632395326644 0.0000000000000000 0.0000000000000000 0.0000000000000000 0.0000000000000000 3.0722688569002345 3.1457214284303632 1.0734580739433550 1.0360348292494326 890.50969965609852 890.50971330343395 1.0360779097564665 
-35.157300738539739 -195.92938415487930 78.551391445948141 -35.157300738539760 -195.92938415487944 78.551391445948113 -420.34650912233207 3.1467139823241498e-06 -8.6920327639939350e-06 -1.7533608383666019e-05 0.0000000000000000 4.5864881337287493e-11 2.9061808515251635e-11 1.4968909578527700e-07 9.0331403977879685e-05 -3.3985865848275705e-12 -1.4255479620627364e-12 -1.0994712516435639e-13 0.0000000000000000 -34.885542273181727 -195.41132893576267 81.596679120775832 139.46796289390394 0.0000000000000000 0.0000000000000000 0.0000000000000000 0.0000000000000000 3.0716355232026600 3.1444504902984920 1.0728205871940582 1.0353830194966194 883.69344564244602 883.69338053863157 1.0357702097570012 
-18.998208035434192 -195.04375396009021 78.363034319237343 -18.998208035434189 -195.04375396009013 78.363034319237343 -426.62016963671226 3.9748767084193927e-06 -5.4500252263973213e-06 -8.1749313341239216e-06 0.0000000000000000 2.9640137566566687e-11 2.8853197608924571e-11 1.4991683716658602e-07 9.4299992863909753e-05 -1.7945210922034252e-12 -3.9131026902318344e-13 -8.6164410686870757e-13 0.0000000000000000 -18.822600960987238 -194.52970000168264 81.412954998504986 111.95285379220412 0.0000000000000000 0.0000000000000000 0.0000000000000000 0.0000000000000000 3.0723942555302277 3.1459783812788373 1.0735897148573839 1.0360348292494335 899.09809835476733 899.09837041357582 1.0361420502388798 
-22.862583326776878 -103.30750062809976 39.226113309198205 -22.862583326776875 -103.30750062809976 39.226113309198205 -422.57797953999022 -1.2005706629403443e-05 1.3757407514590256e-05 -1.8694570098747457e-05 -426.27848411097142 3.3518590680792209e-11 5.5855320368891617e-12 1.9723513666747294e-07 4.5236316596998020e-05 -7.1002376886764886e-12 9.5969524082425684e-12 -1.1976056126729635e-11 4.4223643734241802e-05 -22.663982073999996 -103.20790935200000 43.238681550399988 69.202643319072678 0.0000000000000000 0.0000000000000000 0.0000000000000000 0.0000000000000000 3.0721220061745225 3.1454298729814383 1.0733134383792853 1.0360348292494339 889.15663513948687 889.62020109179798 1.0360086555756125 
-30.395082542034377 -110.90703276461386 43.070754057462693 -30.395082542034384 -110.90703276461386 43.070754057462693 -412.43608853997131 1.0119278234543551e-06 2.1845082925794014e-05 -2.5334793414289091e-05 -408.84474231955619 4.1083927926344195e-11 7.5170425439807786e-12 1.9258679451183980e-07 5.1514664195503937e-05 -1.8620135869910502e-12 1.6591752267568721e-11 -1.5317617634407737e-11 5.5802501588231763e-05 -30.151660686400003 -110.77310694400001 46.988755992800002 74.715282964229786 0.0000000000000000 0.0000000000000000 0.0000000000000000 0.0000000000000000 3.0724841020885152 3.1461590448041581 1.0736805238969149 1.0360348292494330 869.87289333073215 869.92886223932703 1.0361862572603628 
-18.910233916364199 -103.66826954333294 46.166564764029133 -18.910233916364202 -103.66826954333294 46.166564764029140 -404.92508299342757 -1.4588413258479010e-05 1.1272680042414668e-05 -2.7021467623922922e-05 -405.58035835890865 2.9549071522971821e-11 5.6813997950655448e-12 1.8884381614014958e-07 5.6321146728568062e-05 -9.6131874560685454e-12 9.5483715278068885e-12 -1.5833095333499388e-11 5.6769098747492528e-05 -18.735150314000002 -103.56704831999998 50.008419303199993 79.719497061372692 0.0000000000000000 0.0000000000000000 0.0000000000000000 0.0000000000000000 3.0721511685469776 3.1454879823513657 1.0733423799871871 1.0360348292494328 857.62047371756319 857.59092776850650 1.0360223771938186 
-25.707408035109609 -98.565757352762191 47.164940382724645 -25.707408035109623 -98.565757352762205 47.164940382724652 -410.44965841627641 3.2311437978577557e-07 5.3166070922141172e-06 -4.1654795490022214e-05 0.0000000000000000 3.6377720280533765e-11 4.3928194415343569e-12 1.8763673725885610e-07 4.9540763720048089e-05 -4.7394519194951557e-12 8.2141297257262986e-12 -1.9828805261689834e-11 0.0000000000000000 -25.491879232152165 -98.487589184379729 50.982237960580505 72.292163684038698 0.0000000000000000 0.0000000000000000 0.0000000000000000 0.0000000000000000 3.0720852661262921 3.1453607157425121 1.0732810728794606 1.0360348292494335 866.17695248677421 865.60866436429944 1.0359924673530887 
-25.556082354170016 -104.28688856707899 106.37703347590019 -25.556082354170027 -104.28688856707900 106.37703347590015 -132.29028392870842 1.3434943666630954e-05 4.5187759302699051e-05 -8.4281095903830343e-06 0.0000000000000000 4.4232128594032429e-09 4.5661025016655003e-08 7.0468487063564303e-08 0.00012708893123420295 -9.9198921740061777e-12 7.8034178172495998e-12 -4.3277800059259736e-12 0.0000000000000000 -25.283559732051039 -104.23282252886388 108.75695162467670 96.378087069502698 0.0000000000000000 0.0000000000000000 0.0000000000000000 0.0000000000000000 3.0870209204867209 3.1756354068954535 1.0886107800852125 1.0458357293160687 405.65086809312191 405.65809657280209 1.0433374274424059 
-26.200185429698209 -118.12389141407066 108.31673405722108 -26.200185429698198 -118.12389141407073 108.31673405722100 -100.74285973967662 2.1832692520077837e-05 4.7168904984872165e-06 -1.7457776867944299e-05 0.0000000000000000 7.0066375798604034e-09 3.2206778753575885e-08 7.6858211268789571e-08 0.00014552204708511408 3.9734628692503459e-12 2.5712085031509164e-11 2.0807817478795326e-11 0.0000000000000000 -25.913646985361510 -118.01095136745833 110.66456878241424 88.846747377876298 0.0000000000000000 0.0000000000000000 0.0000000000000000 0.0000000000000000 3.1175573391638802 3.2385811255294676 1.1210462927549043 1.0546514351494141 410.09113109420514 410.09208349140550 1.0588235827767603 
-36.671195476560740 -112.70557827232392 109.74797138182731 -36.671195476560769 -112.70557827232383 109.74797138182736 -102.96821412143754 -1.2906052066977659e-05 2.8800147212248433e-05 1.8481656775174175e-05 0.0000000000000000 -2.3289262464770007e-08 8.8375759240376763e-08 4.3210492469892830e-08 0.00014305973921005288 5.2793056200961324e-12 1.0292395034213010e-11 -1.4094935598281498e-11 0.0000000000000000 -36.236867317722961 -112.72601430119678 112.03758904139967 95.996160021407249 0.0000000000000000 0.0000000000000000 0.0000000000000000 0.0000000000000000 3.1209913527030757 3.2457087176417181 1.1247464644526486 1.0579070920690428 421.12026968596552 421.11818522981724 1.0605449980995618 
-33.746405684006653 -105.04509989158892 103.10771399497006 -33.746405684006639 -105.04509989158895 103.10771399497011 -130.79892721533892 1.1729470004089795e-06 5.1865583366605089e-05 -1.3256193064400795e-05 0.0000000000000000 -4.2790888220917230e-08 1.1137230412778024e-07 -1.0554467312129320e-08 0.00013306835669607889 1.5606785288873954e-12 1.7255582086318002e-11 3.0301633999836626e-11 0.0000000000000000 -33.380789828628046 -105.09637623893835 105.63342596379557 85.433794965156210 0.0000000000000000 0.0000000000000000 0.0000000000000000 0.0000000000000000 3.1066295564824844 3.2157502618728429 1.1091268301850805 1.0508115437308054 429.83721392624278 429.83471573624763 1.0531461171955234 
-112.95409477575390 -161.02383219008669 122.70502661961484 -112.95409477575390 -161.02383219008672 122.70502661961480 -280.36208478089264 1.9968281368791707e-06 -6.3115693743441426e-06 -1.6497900043468928e-05 -279.53188526369280 1.2399102577997922e-10 2.0215662477340857e-11 9.6305361019233260e-08 0.00011093027727435109 -1.6804935533446023e-13 8.6449832148398373e-13 1.0454359712436791e-12 0.00011091617794543716 -112.21942232800005 -160.66347960400000 124.66427103520003 147.55923210393107 0.0000000000000000 0.0000000000000000 0.0000000000000000 0.0000000000000000 3.0781552040168170 3.1579277758957240 1.0797820078878559 1.0360348292494341 652.83925368419204 652.83921849458432 1.0391520235185647 
-100.19134779167129 -158.44338312474713 114.42185630676009 -100.19134779167130 -158.44338312474704 114.42185630676011 -287.61235961758342 -1.5024229498384529e-05 -1.0972116100075542e-05 -3.1829196751052777e-05 0.0000000000000000 1.1118526932474281e-10 1.9564849740305590e-11 1.0632008251576508e-07 0.00011439113296931947 -9.6446461641768465e-13 5.6264500675413465e-12 7.5726157710257717e-12 0.0000000000000000 -99.532617471171264 -158.09468895943013 116.58484116745363 117.70414803503969 0.0000000000000000 0.0000000000000000 0.0000000000000000 0.0000000000000000 3.0575962025772441 3.1147794714448493 1.0571697539864291 1.0296375845113916 622.65816552419506 622.65820611382503 1.0281656037215361 
-105.03008479251693 -149.16173968589806 118.83738415856543 -105.03008479251687 -149.16173968589814 118.83738415856536 -273.34229452927951 -1.2976037243457732e-05 -1.2169947208128996e-05 -1.4855155980756322e-05 0.0000000000000000 1.1603472349630552e-10 1.7206958080606686e-11 1.0098151825843617e-07 0.00011160137201249338 2.2688314695749176e-12 1.9207983466444989e-12 6.0366563661270377e-12 0.0000000000000000 -104.34256255272837 -148.85497981259945 120.89176065121424 119.29379793442074 0.0000000000000000 0.0000000000000000 0.0000000000000000 0.0000000000000000 3.0585639608927968 3.1172891297273058 1.0587229547391006 1.0301225546255304 600.30340338099120 600.30343068845059 1.0289147017663114 
-101.19511271406134 -162.65075772307699 122.60613867991830 -101.19511271406141 -162.65075772307691 122.60613867991832 -277.11844536009090 -8.5386265710492971e-06 -1.7053425611303241e-05 -1.4916702237263422e-05 0.0000000000000000 1.1218835582749165e-10 2.0639878695050129e-11 9.6424919604487513e-08 0.00011190117400091845 1.2521243309596352e-12 3.3090296676326637e-12 5.1601775047318193e-12 0.0000000000000000 -100.53040969477119 -162.28305471776312 124.56781543385799 141.51484144144280 0.0000000000000000 0.0000000000000000 0.0000000000000000 0.0000000000000000 3.0602010998785558 3.1209056817705672 1.0607036645092938 1.0305956057809853 609.84249918708394 609.84258711226710 1.0298854014458074 
-78.932763013927271 -149.10393670852457 86.600935194072548 -78.932763013927257 -149.10393670852457 86.600935194072548 -294.36112631763939 -3.7514944052220383e-05 -2.6296820262045387e-05 -1.2742966298109609e-05 -294.45829713515138 8.9832516425580877e-11 1.7188417356095439e-11 1.3995684344791925e-07 0.00010414200977637012 -8.3950411826765455e-12 -1.0016648959054678e-11 -2.3113515276844151e-12 0.00010274328145790577 -78.400527573600002 -148.79743798799998 89.448228916799977 108.06316173413846 0.0000000000000000 0.0000000000000000 0.0000000000000000 0.0000000000000000 3.0771350522299623 3.1556472501294364 1.0785203678358479 1.0360348292494324 676.17198332731175 676.18668679394432 1.0385373675780403 
-80.692067109931472 -162.90348915722166 84.883471689982301 -80.692067109931472 -162.90348915722171 84.883471689982315 -352.81093154783355 -2.1958546413613661e-05 -4.2678582654491149e-05 -2.3470130071094202e-05 -354.75223588474370 9.1600491081145208e-11 2.0682289214590810e-11 1.4203332820983405e-07 9.1449019861440669e-05 7.4701279170466695e-12 -1.1098213407079017e-11 1.5219087574834683e-12 8.8058484330493926e-05 -80.149363288800018 -162.53464431600008 87.773009718400019 109.57810873427631 0.0000000000000000 0.0000000000000000 0.0000000000000000 0.0000000000000000 3.0778877296497247 3.1570759443240699 1.0791944848957693 1.0360348292494321 779.86744872088036 779.86427378451913 1.0388698181934399 
-84.863000725162067 -160.54261181809488 92.265225577324344 -84.863000725162067 -160.54261181809488 92.265225577324316 -326.29623200859368 -1.6135645151568623e-05 -2.9508212611227051e-05 -4.3719179652810646e-05 0.0000000000000000 9.5783367348722935e-11 2.0098311903637974e-11 1.3310845936587157e-07 9.5852721312671420e-05 -1.0694079461165384e-11 2.3939876869748205e-12 -1.0288752110497496e-11 0.0000000000000000 -84.295478612813938 -160.18443337667750 94.973195224810283 106.11323630727971 0.0000000000000000 0.0000000000000000 0.0000000000000000 0.0000000000000000 3.0584334922866376 3.1177124453383125 1.0592813124021108 1.0304870226103353 689.53295191546317 689.53186068133664 1.0291784406975426 
-87.054573301529317 -151.70841482004241 89.867539553996437 -87.054573301529274 -151.70841482004241 89.867539553996451 -315.77425927850976 -1.8173947779095075e-05 -3.8276862331424980e-05 -4.2244182732849012e-05 0.0000000000000000 9.7980165647548745e-11 1.7868651003283276e-11 1.3600736625818399e-07 9.8276561986739336e-05 -4.4197632495029186e-12 6.5157182739149140e-13 -4.9222152503240885e-12 0.0000000000000000 -86.474010682800568 -151.39014911596544 92.634484883397832 94.367740677547317 0.0000000000000000 0.0000000000000000 0.0000000000000000 0.0000000000000000 3.0656048915014504 3.1322842233832096 1.0666849634322271 1.0317506327860586 683.42814791607498 683.42742338358414 1.0328038863345614 
-26.237338576744126 -132.66311450431348 137.03792524107075 -26.237338576744133 -132.66311450431346 137.03792524107075 -175.44744435239440 1.3838088162459550e-05 -1.1919853799724777e-05 5.4350022789372155e-05 -184.29620782225194 3.6910433043324531e-11 1.3033629731040717e-11 7.8976229112015504e-08 0.00012006091279705185 6.5058679172225018e-12 -3.4881587416961895e-12 2.4437103254917652e-11 0.00011611637452644032 -26.018656529999991 -132.43089511199997 138.64462455200004 49.421240865332216 0.0000000000000000 0.0000000000000000 0.0000000000000000 0.0000000000000000 3.0713925858627182 3.1439112316337297 1.0725247797168991 1.0386013807810401 456.09314612966199 456.08399340549028 1.0356428370888688 
-32.752898473650944 -134.19595807097070 135.96998275741603 -32.752898473650937 -134.19595807097073 135.96998275741601 -168.28167149690191 -1.6837005586195917e-06 8.5172225121473726e-06 3.1931812735632385e-05 -144.32752544023239 4.3453976528162741e-11 1.3423984146498924e-11 8.0267429147795597e-08 0.00012337795707636343 -6.8485089803283856e-13 -1.3291366856545134e-12 2.9681070687965959e-11 0.00012405695094868714 -32.495446914399992 -133.95681332000001 137.60295016000006 48.530522504776933 0.0000000000000000 0.0000000000000000 0.0000000000000000 0.0000000000000000 3.0909853506515930 3.1840341118241025 1.0930605977685728 1.0454601516770412 484.49365010347600 484.49350137067148 1.0454655705106433 
-28.651249387919798 -136.68918621725416 138.74532193425799 -28.651249387919794 -136.68918621725419 138.74532193425802 -176.98012718689702 1.6853159734937384e-05 9.9923450585370127e-06 1.7106883156729414e-05 -185.32076679078787 3.9332828660754160e-11 1.4054146735276166e-11 7.6911910618093771e-08 0.00011398620402913528 1.2413194551056209e-11 -1.0201476751980069e-11 8.4967506425061472e-12 0.00010786899002770213 -28.418203856399998 -136.43877710800004 140.31002455199999 44.353383947079159 0.0000000000000000 0.0000000000000000 0.0000000000000000 0.0000000000000000 3.0755946848499440 3.1523847788325865 1.0767946324000488 1.0406543174306973 468.94319427437216 468.93536430750351 1.0376778959570117 
-26.991535231690754 -129.72066257397219 142.37285794786698 -26.991535231690751 -129.72066257397225 142.37285794786700 -187.92197775418433 6.3758238550584222e-06 7.8985335698284566e-06 1.0881861813970963e-05 0.0000000000000000 3.7666716967699194e-11 1.2283007944091651e-11 7.2526062488975640e-08 0.00011343655761437148 -2.4341357189039640e-12 -2.5077217187012268e-12 8.0259941686469272e-12 0.0000000000000000 -26.768365491316434 -129.50173712462359 143.84833436668455 49.139845408488213 0.0000000000000000 0.0000000000000000 0.0000000000000000 0.0000000000000000 3.0773039060257257 3.1561703849073974 1.0788747135801200 1.0407766551098305 494.91097454343634 494.92078129112502 1.0386809101519674 
-40.371546699454548 -65.404416846203318 152.73272542005409 -40.371546699454555 -65.404416846203304 152.73272542005409 -258.48802748719373 -6.4883409315570289e-06 -2.2707899356842631e-07 1.0801027978729429e-05 -260.38295243462733 5.1101026188327126e-11 -4.0215053509484733e-12 6.0000521884262525e-08 0.00010264621718080243 -2.2334714971141331e-12 -4.2201471886289994e-13 4.1135239031529688e-12 0.00010206177318115523 -40.068761925200000 -65.476070995999990 153.95338104800004 156.95717166164070 0.0000000000000000 0.0000000000000000 0.0000000000000000 0.0000000000000000 3.0702675672354682 3.1417185790456945 1.0714575198358671 1.0349269961450351 598.62824154835994 596.74466639078696 1.0351137264303956 
-52.803516585336389 -59.557706792380841 147.92490121964207 -52.803516585336403 -59.557706792380834 147.92490121964209 -262.14902548873334 -6.7009353053686458e-06 -1.6936468909828128e-06 8.4804884270016687e-06 -263.04252220593105 6.3592173193960377e-11 -5.5022097988910446e-12 6.5813400063063923e-08 0.00010186277572518390 -2.0016169977407678e-12 -1.3137136287179040e-12 4.6579033065855408e-12 0.00010205219849367343 -52.426757905599978 -59.655776269200025 149.26381449600007 118.05125250056595 0.0000000000000000 0.0000000000000000 0.0000000000000000 0.0000000000000000 3.0738658126755998 3.1490632093805995 1.0752044535107754 1.0351104341016353 612.55916037089344 612.83675418343057 1.0369242258625866 
-35.446395929829933 -65.960628973826431 143.55314613467004 -35.446395929829926 -65.960628973826459 143.55314613467002 -251.74593638163182 -2.0137187509593329e-06 1.1659762539418846e-06 7.0120301534576466e-07 -251.60346486272826 4.6154927102470828e-11 -3.8812286717870847e-12 7.1099031551113967e-08 0.00010549828866190849 -1.0380695075653460e-12 5.5654335306524346e-13 1.3923610020857223e-12 0.00010597596612017155 -35.172917262399999 -66.029770167599992 144.99959110400002 155.12084301790807 0.0000000000000000 0.0000000000000000 0.0000000000000000 0.0000000000000000 3.0730707214273467 3.1473116991061008 1.0742465341392118 1.0358880389344596 593.41406754353750 592.53753596621766 1.0364592394192267 
-50.777531714044102 -66.523530171775263 140.68651535221369 -50.777531714044102 -66.523530171775278 140.68651535221366 -256.30507510247924 -6.7864670854970229e-06 3.6059070011189670e-06 5.2331016366920898e-06 0.0000000000000000 6.1553803720748590e-11 -3.7309044742528386e-12 7.4564922236675115e-08 0.00010403817706792835 -1.7729583411330772e-12 4.2083309135065293e-13 2.0922738799035232e-12 0.0000000000000000 -50.412828244765279 -66.590128188430739 142.20347059834828 136.07757377940416 0.0000000000000000 0.0000000000000000 0.0000000000000000 0.0000000000000000 3.0647807480768225 3.1302075660842941 1.0654258600940747 1.0330383947926716 583.46775163701523 583.58933102206913 1.0321891541160761 
-95.188681815220434 -159.06826853796414 74.481471497730695 -95.188681815220434 -159.06826853796412 74.481471497730695 -408.21825280044874 -9.1517818396240592e-06 -1.2535349496404310e-05 -1.8146972062960671e-05 -408.24624688100891 1.0616028889298689e-10 1.9717394383889086e-11 1.5460981384052275e-07 9.1120334246518872e-05 -1.4899456996913997e-12 -2.5904595513826696e-13 -1.2120324910531277e-12 9.1587640014089187e-05 -94.559718839999974 -158.71675115199997 77.626866652000004 109.98746742214213 0.0000000000000000 0.0000000000000000 0.0000000000000000 0.0000000000000000 3.0718478008870638 3.1448759795142820 1.0730337729217161 1.0360348292494332 863.14475507467307 863.14243072566262 1.0358724808061761 
-90.281905678910022 -158.81678639030943 79.414290795257571 -90.281905678910036 -158.81678639030946 79.414290795257571 -382.52506873476131 -3.2846180153334840e-05 -2.9079593649928705e-05 -3.7307798406278266e-05 -373.82947673092735 1.0123089866365120e-10 1.9652779403855902e-11 1.4864581920903677e-07 9.1777541171309275e-05 -1.8353000183431357e-12 -2.1445471019669767e-12 1.5440529670837575e-13 9.4910483950459972e-05 -89.682139475999989 -158.46640519600001 82.438353807199988 112.88451412247700 0.0000000000000000 0.0000000000000000 0.0000000000000000 0.0000000000000000 3.0726355743293259 3.1464095526248146 1.0737790606023538 1.0360348292494339 816.65438067145124 816.66132349473571 1.0362294612741929 
-103.38761565734696 -155.27843362715720 83.690094595161753 -103.38761565734696 -155.27843362715711 83.690094595161739 -378.96284055592184 -7.5268009605698835e-06 -6.7594697235383748e-06 -4.2571879642518063e-05 0.0000000000000000 1.1439159341986026e-10 1.8770041076976444e-11 1.4347617316445849e-07 9.2407886890390404e-05 4.7980766679116232e-13 3.2343162590359826e-12 -5.2259688726248999e-12 0.0000000000000000 -102.70986659571734 -154.94403864466588 86.608986019839278 111.02505284862640 0.0000000000000000 0.0000000000000000 0.0000000000000000 0.0000000000000000 3.0734982543588001 3.1482415375297852 1.0747490331676905 1.0350908748206307 818.23705225373385 818.24169046934207 1.0367084364614989 
-101.07102936339206 -167.56381337807034 80.677072674814212 -101.07102936339201 -167.56381337807034 80.677072674814141 -398.51651858048842 -4.4318817734973283e-06 -8.5499291383110852e-06 -4.0647865717561500e-05 0.0000000000000000 1.1206134631347454e-10 2.1867008204168318e-11 1.4711906004549746e-07 9.1519092071436239e-05 2.1425170258975054e-12 1.7993270563651814e-13 1.8508766821505919e-12 0.0000000000000000 -100.40706467681501 -167.17391327890167 83.670075146830683 105.53983917324770 0.0000000000000000 0.0000000000000000 0.0000000000000000 0.0000000000000000 3.0720690326809863 3.1453281567063174 1.0732647367493764 1.0352748140371266 844.67636143076390 844.67493946196305 1.0359858983812658 
-115.37312866033474 -99.890002511320830 93.904618221412136 -115.37312866033473 -99.890002511320830 93.904618221412164 -325.15928949312780 -7.0718705305909330e-06 -9.7134614458418322e-06 -3.0413370082988314e-05 -328.73961716476185 1.2642963062940129e-10 4.7233328359652660e-12 1.3112635599554776e-07 8.0936189359778223e-05 -2.3284207964728138e-12 -2.1476348197706847e-12 -1.0412445794656942e-11 8.0899539282562860e-05 -114.62406224400000 -99.805851428000011 96.572263865600007 85.211636250682801 0.0000000000000000 0.0000000000000000 0.0000000000000000 0.0000000000000000 3.0738190389825908 3.1486448198872385 1.0748242204638419 1.0324786711385252 721.68084317463195 721.67717295667705 1.0367285413445637 
-111.81545934546818 -91.142270968896824 97.645640479160477 -111.81545934546820 -91.142270968896824 97.645640479160448 -309.50083872059662 -3.2068085138370098e-06 -4.6920823415865547e-07 -3.3342589604953585e-05 -307.31356690957494 1.2285393535815814e-10 2.4978352719529088e-12 1.2660329229419176e-07 8.4374289629235351e-05 -2.1236389434969006e-13 4.0130266194917889e-12 -1.7223644409370968e-11 8.7777028753020198e-05 -111.08756211600000 -91.097641973600034 100.22126851279998 99.535403830130534 0.0000000000000000 0.0000000000000000 0.0000000000000000 0.0000000000000000 3.0794927927707296 3.1605117913120302 1.0810287495152484 1.0347498518962437 705.57887917032781 705.57869432481687 1.0397439125161314 
-113.64312040647418 -97.730198014871291 106.01709525048547 -113.64312040647422 -97.730198014871320 106.01709525048547 -288.20395524037315 -3.0063050359649506e-06 -1.8805537696166272e-06 -2.8929432105810504e-05 -287.80159083411706 1.2468458210346256e-10 4.1772696413033827e-12 1.1648183129153722e-07 9.1446878589838501e-05 -8.5147305547044715e-13 3.7118439554896668e-13 -9.8402365571212521e-12 9.1709466989750850e-05 -112.90434805199999 -97.655804887999992 108.38681131359999 128.09762094244454 0.0000000000000000 0.0000000000000000 0.0000000000000000 0.0000000000000000 3.0736501322053464 3.1487154805579585 1.0750727573885777 1.0346927531984558 659.03649549140914 659.03623231670349 1.0368581802982475 
-107.85902155164541 -103.94366677010329 97.982830818767468 -107.85902155164544 -103.94366677010336 97.982830818767511 -305.79952649195656 -3.2878520646609646e-05 -3.1032599795955961e-06 -3.5559227264585219e-05 0.0000000000000000 1.1888477702282074e-10 5.7435167732933215e-12 1.2619561040594363e-07 8.5411729939991466e-05 -5.1008339244673793e-12 -1.2369132039828921e-12 -3.3924567418391322e-12 0.0000000000000000 -107.15466629968294 -103.84120130723400 100.55016500991876 102.24201981555134 0.0000000000000000 0.0000000000000000 0.0000000000000000 0.0000000000000000 3.0600765783597965 3.1201290248067717 1.0600452074660855 1.0294440528248037 657.44876625465974 657.44896756049025 1.0295650390097892 
-27.154940637288664 -115.47009547734908 100.77551029929381 -27.154940637288657 -115.47009547734901 100.77551029929377 -117.94518183367192 2.8330544733417135e-05 1.5130982443912331e-05 -4.1785014006661866e-05 0.0000000000000000 4.5453469541530688e-09 4.8541766646388918e-08 4.0388739535678100e-08 0.00015170475893474178 2.6285267874258394e-11 3.3267735210766230e-11 2.3336726404394902e-11 0.0000000000000000 -26.889884864405381 -115.37486796036181 103.37575244326078 96.382960025775517 0.0000000000000000 0.0000000000000000 0.0000000000000000 0.0000000000000000 3.1023034485937013 3.2072313306161959 1.1049409624534610 1.0511616560691659 409.11822373413395 409.11841342724091 1.0511564439192851 
-110.28713742909265 -103.72324295618735 150.93251464262519 -110.28713742909264 -103.72324295618733 150.93251464262522 -267.12727311481564 8.0067483024744520e-07 2.6583637723831271e-06 2.8374609107227472e-07 -268.19224343925225 1.2132371496331729e-10 5.6977755846787659e-12 6.2177051951550766e-08 9.5017238501279912e-05 1.0893846336590353e-12 1.7254462154414174e-12 3.0814201630548517e-12 9.5029340685332987e-05 -109.56833416800004 -103.62177336400003 152.19744990400002 70.302883591683823 0.0000000000000000 0.0000000000000000 0.0000000000000000 0.0000000000000000 3.0691635887508038 3.1392713573071238 1.0701109757615703 1.0345088188337535 611.67414601011410 611.67344756009209 1.0344645569393371 