# For a description of the Tecplot format see the Tecplot User's guide.
#
Variables=x,y,z,s_u,s_v,s_w,s_p,mono_f_vel_u,mono_f_vel_v,mono_f_vel_w,const,u_nu,v_nu,w_nu,p_nu,x_nu,y_nu,z_nu,const,u_ref,v_ref,w_ref,vol_ref,x_ref,y_ref,z_ref,const,I1,I2,I3,J,p1,p2,p3
Zone f=fepoint, n=3174, e=16683, et=brick, c=black
-24.9047 -154.163 112.229 -24.904656477951491 -154.16259057397107 112.22863736611930 -5.9530511498116541 -8.3615543317696723e-08 -3.6757849581113983e-07 -3.1767793527340503e-07 -5.9322702873488886 1.0687951717235078e-12 9.5951501952185048e-13 1.9194551850731936e-10 1.4281863460707812e-06 -7.5425799102902058e-15 -2.0810676974138161e-14 2.2288678323384387e-14 1.4236463218192420e-06 -24.903554063199991 -154.16086777200002 112.24023381839994 89.724962256112903 0.0000000000000000 0.0000000000000000 0.0000000000000000 0.0000000000000000 3.0003760005989695 3.0007520218007482 1.0003760212005159 1.0002001017379276 11.075694984957776 11.075694978633125 1.0001879929095201 
-37.440030922140153 -155.10753438795783 114.92146833538646 -37.440030922140174 -155.10753438795786 114.92146833538651 -5.7894935219615746 2.8828076931973887e-07 -3.6739359397121170e-07 -1.7032062071904717e-07 0.0000000000000000 -1.0382342588381536e-11 -4.2092236315842911e-10 1.5119973498691994e-10 1.4600699851419420e-06 6.2150439525897349e-14 -9.9960926052096647e-14 4.7094000647516201e-14 0.0000000000000000 -37.438273663334591 -155.10473791080037 114.93291110338620 89.036758072416930 0.0000000000000000 0.0000000000000000 0.0000000000000000 0.0000000000000000 3.0005806730115361 3.0011614400410740 1.0005807670330065 1.0002747664398859 11.227110603215641 11.227110576342875 1.0002903421587064 
-31.543928637375622 -147.88064747521676 119.85073580317814 -31.543928637375636 -147.88064747521679 119.85073580317807 -5.6836885563026405 1.0203517286342574e-07 -2.8160317427642037e-07 7.0696650270375817e-09 0.0000000000000000 1.2689397601260699e-12 8.8148932597675856e-13 1.7571556015782977e-10 1.4299889287783014e-06 2.6658646359024625e-14 -3.5952128530096873e-14 3.5162603975081566e-14 0.0000000000000000 -31.542619574254449 -147.87907313389167 119.86135157363466 98.260374494724786 0.0000000000000000 0.0000000000000000 0.0000000000000000 0.0000000000000000 3.0004679684089468 3.0009359911814828 1.0004680227731422 1.0002441273961680 10.870564389949264 10.870564406192479 1.0002339828464633 
-28.648874731807418 -142.96883984664194 112.11290959694907 -28.648874731807410 -142.96883984664194 112.11290959694907 -5.6404898897137539 1.5036633503344908e-07 -3.0589992817944177e-07 -2.2480138781502805e-07 0.0000000000000000 1.1809074226300231e-12 8.1325527909181804e-13 1.9219147801008421e-10 1.4746217702962252e-06 1.3118582252002362e-13 -3.5283110516474704e-14 4.3708042650487650e-14 0.0000000000000000 -28.647655777685479 -142.96738158566356 112.12452093910819 112.69127588814607 0.0000000000000000 0.0000000000000000 0.0000000000000000 0.0000000000000000 3.0004996797878936 3.0009994307584926 1.0004997509733160 1.0002462367884002 10.840045444195919 10.840045451297801 1.0002498441251568 
-24.262942637709262 -200.43497604546104 73.709994107868809 -24.262942637709266 -200.43497604546107 73.709994107868809 -7.4042174385584572 5.1035137023903595e-09 -6.1249960835567353e-10 5.8351022787511555e-09 -7.4137518024732270 1.0480718398188371e-12 1.5679775186572263e-12 2.7397475954593626e-10 1.4101648800011794e-06 1.1298906390847110e-16 -2.8502621445616709e-16 -4.7455120909622921e-17 1.4100848778557287e-06 -24.261860196399997 -200.43215969199997 73.726546483199982 142.71380061529433 0.0000000000000000 0.0000000000000000 0.0000000000000000 0.0000000000000000 3.0003673161978068 3.0007346636349763 1.0003673474379304 1.0001834469081552 13.635887395244838 13.635887388309012 1.0001836568562517 
-24.158476952598704 -187.64159171645869 75.293533600363389 -24.158476952598704 -187.64159171645866 75.293533600363389 -7.3698576491279848 3.8770003009501195e-08 -5.9009518777054879e-08 -1.8371047689842460e-08 -7.3795174938951842 1.0437029387445895e-12 1.4157546662785236e-12 2.7060928844968579e-10 1.4104269028857788e-06 3.4705552790912933e-16 -5.8944965306442888e-17 4.2108625497982024e-16 1.4109164024505871e-06 -24.157397762799999 -187.63907770800003 75.309882232799993 165.73632395326644 0.0000000000000000 0.0000000000000000 0.0000000000000000 0.0000000000000000 3.0003673586621389 3.0007347483705686 1.0003673897091738 1.0001834469081539 13.578411581932443 13.578411586346437 1.0001836779772815 
-34.886955388525983 -195.41402662953800 81.581139470386077 -34.886955388525990 -195.41402662953803 81.581139470386049 -7.3569291260316403 1.0199597557290431e-08 -4.7059980298198392e-08 -9.4333618490879131e-08 0.0000000000000000 1.3722514335783031e-12 1.5039523446058747e-12 2.5720955573738102e-10 1.4105060374987477e-06 9.5372311479472143e-17 -5.9151746795813172e-16 -2.2177489260566539e-16 0.0000000000000000 -34.885542273181727 -195.41132893576267 81.596679120775832 139.46796289390394 0.0000000000000000 0.0000000000000000 0.0000000000000000 0.0000000000000000 3.0003643535814022 3.0007287381454089 1.0003643845647689 1.0001801581921854 13.550156371151658 13.550156371439879 1.0001821756794229 
-18.823514099244527 -194.53237685950143 81.397391706582056 -18.823514099244520 -194.53237685950145 81.397391706582042 -7.3847827316810273 1.9050084278759104e-08 -2.8777968395000932e-08 -4.3513385460533489e-08 0.0000000000000000 8.8323516252500355e-13 1.5031179426139298e-12 2.5760813968100926e-10 1.4094139606294658e-06 4.0174658555873804e-16 6.0529583501232216e-16 7.8869763372438767e-16 0.0000000000000000 -18.822600960987238 -194.52970000168264 81.412954998504986 111.95285379220412 0.0000000000000000 0.0000000000000000 0.0000000000000000 0.0000000000000000 3.0003679853585319 3.0007360019165223 1.0003680165587492 1.0001834469081559 13.622403721999962 13.622403722778527 1.0001839913617021 
-22.665014779558291 -103.20842795842593 43.218206011044906 -22.665014779558291 -103.20842795842591 43.218206011044906 -7.4895455066872803 -7.0644833963782673e-08 8.1378900623902722e-08 -1.0928849357029739e-07 -7.5093721512910525 1.0010430527042367e-12 2.9417093760919499e-13 3.3890913686551722e-10 1.3628770131143974e-06 -1.7184190115806877e-15 7.9516453792282812e-16 -4.9498768845400588e-16 1.3634861551016791e-06 -22.663982073999996 -103.20790935200000 43.238681550399988 69.202643319072678 0.0000000000000000 0.0000000000000000 0.0000000000000000 0.0000000000000000 3.0003666058870384 3.0007332428700200 1.0003666369837394 1.0001834469081545 13.789111892250954 13.789818759127586 1.0001833016994228 
-30.152926454363737 -110.77380434234540 46.968763011248534 -30.152926454363747 -110.77380434234540 46.968763011248534 -7.4298728624165458 2.8246841025282985e-09 1.3130980292774449e-07 -1.4600423743297699e-07 -7.4053492354994850 1.2255235346501914e-12 3.9495273371215056e-13 3.3092764986641932e-10 1.3635327598161481e-06 2.3534804991027119e-16 2.4468600790604470e-15 -1.9482218240234982e-16 1.3661332515126054e-06 -30.151660686400003 -110.77310694400001 46.988755992800002 74.715282964229786 0.0000000000000000 0.0000000000000000 0.0000000000000000 0.0000000000000000 3.0003686801439069 3.0007373915457349 1.0003687114025879 1.0001834469081541 13.676203529378379 13.676219758186532 1.0001843387328007 
-18.736060730257694 -103.56757541412829 49.988814890493536 -18.736060730257694 -103.56757541412829 49.988814890493536 -7.3853121851560841 -8.6142920499010026e-08 6.9800340834390139e-08 -1.5650470719878077e-07 -7.3890321202529341 8.8183849328640752e-13 2.9310928684189719e-13 3.2449476439211367e-10 1.3644410866231456e-06 -1.9132957924339575e-15 7.8314622471517182e-16 -1.5590725770875646e-15 1.3642975345887440e-06 -18.735150314000002 -103.56704831999998 50.008419303199993 79.719497061372692 0.0000000000000000 0.0000000000000000 0.0000000000000000 0.0000000000000000 3.0003667817238511 3.0007335945405509 1.0003668128174590 1.0001834469081547 13.603616685889799 13.604519868685585 1.0001833895919419 
-25.492999959185216 -98.487996233229907 50.962758858397791 -25.492999959185223 -98.487996233229893 50.962758858397812 -7.4226786749672717 -2.8986842827013678e-09 3.6164844425964448e-08 -2.3487591639537444e-07 0.0000000000000000 1.0851887422523576e-12 2.2958935100292344e-13 3.2241548320044449e-10 1.3626459597426004e-06 -1.3342070898506816e-15 1.0252215118249008e-15 -1.5638768860825947e-15 0.0000000000000000 -25.491879232152165 -98.487589184379729 50.982237960580505 72.292163684038698 0.0000000000000000 0.0000000000000000 0.0000000000000000 0.0000000000000000 3.0003662813873380 3.0007325939617573 1.0003663125751787 1.0001834469081552 13.661311142687110 13.660761510539276 1.0001831395076513 
-25.285093197186306 -104.23297089436952 108.74477940204906 -25.285093197186296 -104.23297089436950 108.74477940204906 -5.6808390610121631 9.8524227237359257e-08 3.3626721317200781e-07 -1.1092077025759733e-07 0.0000000000000000 4.8871487389900520e-11 2.8008653040132530e-10 2.3889868909938398e-10 1.3718223770879653e-06 -7.9802248668539660e-14 1.3355840938825863e-14 2.9279389027861507e-13 0.0000000000000000 -25.283559732051039 -104.23282252886388 108.75695162467670 96.378087069502698 0.0000000000000000 0.0000000000000000 0.0000000000000000 0.0000000000000000 3.0004668558639103 3.0009337505329934 1.0004668946664059 1.0002515533062193 10.802812198091981 10.802808507109264 1.0002334186301953 
-25.915282109902105 -118.01134525549884 110.65257714921010 -25.915282109902108 -118.01134525549880 110.65257714921015 -5.4047474489827199 2.0581767335014106e-07 8.5044347056748724e-08 -1.3568799729986187e-07 0.0000000000000000 3.9734140352615857e-11 2.5812710929439898e-10 3.2689426647635461e-10 1.4274569959500339e-06 -6.1874161810221663e-14 1.4246835200560570e-13 2.3918181886141456e-13 0.0000000000000000 -25.913646985361510 -118.01095136745833 110.66456878241424 88.846747377876298 0.0000000000000000 0.0000000000000000 0.0000000000000000 0.0000000000000000 3.0006966990933162 3.0013935199532784 1.0006968208639371 1.0003183771793056 10.767709806377793 10.767709123563712 1.0003483513254425 
-36.239444798370656 -112.72548233512184 112.02599757938933 -36.239444798370648 -112.72548233512181 112.02599757938927 -5.4197593003319966 -4.9455991059376636e-08 3.0456498695151648e-07 2.1487062510239623e-07 0.0000000000000000 -3.1219508315307598e-11 5.7662520362208496e-10 4.6227515901221904e-10 1.3742214659528618e-06 3.3551326740124335e-14 2.4816074407857343e-14 -3.7122796263535247e-14 0.0000000000000000 -36.236867317722961 -112.72601430119678 112.03758904139967 95.996160021407249 0.0000000000000000 0.0000000000000000 0.0000000000000000 0.0000000000000000 3.0007293279040641 3.0014587899266592 1.0007294620284135 1.0003430757857508 10.852657424850561 10.852656703480740 1.0003646648060214 
-33.382921923413186 -105.09574002380580 105.62040281420043 -33.382921923413171 -105.09574002380579 105.62040281420046 -5.6809125889080114 2.3120361636147122e-08 3.9553367795021029e-07 -2.0788222543442332e-07 0.0000000000000000 1.8600986828470196e-11 5.6111445728728957e-10 1.5776331682015974e-10 1.4091151440306830e-06 -8.1943923424401925e-14 2.0680422563104934e-14 2.3559611368240809e-13 0.0000000000000000 -33.380789828628046 -105.09637623893835 105.63342596379557 85.433794965156210 0.0000000000000000 0.0000000000000000 0.0000000000000000 0.0000000000000000 3.0005920112270705 3.0011840930636438 1.0005920818356138 1.0002824337221135 10.988606854507674 10.988622696623361 1.0002959968487171 
-112.22324254720664 -160.66535608529497 124.65427330214573 -112.22324254720662 -160.66535608529495 124.65427330214568 -6.6937642831201378 8.9764884140492994e-09 -2.8773835258766233e-08 -8.3104081152709628e-08 -6.6898013334270372 3.7046741000433536e-12 1.0434474465026433e-12 1.6548739462107775e-10 1.3471862383506158e-06 -9.8891357337870455e-16 2.9184792299282466e-15 2.2394792743181149e-14 1.3456118035060169e-06 -112.21942232800005 -160.66347960400000 124.66427103520003 147.55923210393107 0.0000000000000000 0.0000000000000000 0.0000000000000000 0.0000000000000000 3.0004045473449703 3.0008091390645180 1.0004045917208975 1.0001834469081541 12.478807552434249 12.478807590793954 1.0002022763944047 
-99.536042799329437 -158.09650473127178 116.57380377718945 -99.536042799329465 -158.09650473127172 116.57380377718940 -6.7233438318994603 -8.9509329112181891e-08 -5.5089302256138318e-08 -1.7538164885791713e-07 0.0000000000000000 3.3182549047904020e-12 1.0190676427712653e-12 1.8268871831983446e-10 1.3640856184323126e-06 -1.4674224541314796e-15 -1.7481838016750269e-15 1.4931695184433351e-14 0.0000000000000000 -99.532617471171264 -158.09468895943013 116.58484116745363 117.70414803503969 0.0000000000000000 0.0000000000000000 0.0000000000000000 0.0000000000000000 3.0002730224598984 3.0005460259784518 1.0002730035162555 1.0001453491793035 12.245636475013841 12.245635248721252 1.0001364916879074 
-104.34613759582874 -148.85657721799208 120.88127747331004 -104.34613759582868 -148.85657721799214 120.88127747331008 -6.6563874093946955 -7.8440730728480026e-08 -5.6396534301307323e-08 -8.1452674758721150e-08 0.0000000000000000 3.4637531016144811e-12 8.9968787628236235e-13 1.7351627426553937e-10 1.3521092516024252e-06 -6.5848782505647654e-15 6.9140394829655135e-15 1.8307116867619139e-14 0.0000000000000000 -104.34256255272837 -148.85497981259945 120.89176065121424 119.29379793442074 0.0000000000000000 0.0000000000000000 0.0000000000000000 0.0000000000000000 3.0002819023789176 3.0005638039753348 1.0002819015959856 1.0001472087386689 12.151354315765495 12.151354822260139 1.0001409398773722 
-100.53386608033294 -162.28496947524849 124.55780528894267 -100.53386608033300 -162.28496947524852 124.55780528894272 -6.6698249352602375 -5.5705764806383320e-08 -8.6839719461417309e-08 -7.1346604552816228e-08 0.0000000000000000 3.3475843082796112e-12 1.0593925910129531e-12 1.6568951766160467e-10 1.3485917253055352e-06 -6.3092543904120044e-15 2.6047946729187284e-15 2.4898374125088474e-14 0.0000000000000000 -100.53040969477119 -162.28305471776312 124.56781543385799 141.51484144144280 0.0000000000000000 0.0000000000000000 0.0000000000000000 0.0000000000000000 3.0002901218662958 3.0005802538541011 1.0002901319875870 1.0001503289616951 12.188860747919383 12.188860992132279 1.0001450547293016 
-78.403295141728904 -148.79903403347936 89.433699600120320 -78.403295141728904 -148.79903403347933 89.433699600120320 -6.7276794218030522 -2.2180231326555294e-07 -1.4502942234325591e-07 -7.4144438738915246e-08 -6.7249383778553105 2.6845200866952579e-12 8.8160555244964911e-13 2.4049053373720319e-10 1.4120023048138751e-06 -1.4885689758150203e-14 7.9595606054808423e-16 -2.8539633849216954e-15 1.4188601339757244e-06 -78.400527573600002 -148.79743798799998 89.448228916799977 108.06316173413846 0.0000000000000000 0.0000000000000000 0.0000000000000000 0.0000000000000000 3.0003900378241939 3.0007801120469013 1.0003900742238696 1.0001834469081561 12.506796407575999 12.506760444721284 1.0001950185443604 
-80.152185291404479 -162.53656501942223 87.758264835307074 -80.152185291404493 -162.53656501942220 87.758264835307060 -7.0530811555773161 -1.3126812024931170e-07 -2.2695277257909504e-07 -1.3181598963613594e-07 -7.0640771489449312 2.7406366564196316e-12 1.0811807178712216e-12 2.4406466084259120e-10 1.4037655512808396e-06 -7.1747532118954942e-15 -1.2706617586576935e-15 -2.4516842559742930e-15 1.4040002007729713e-06 -80.149363288800018 -162.53464431600008 87.773009718400019 109.57810873427631 0.0000000000000000 0.0000000000000000 0.0000000000000000 0.0000000000000000 3.0003968997343384 3.0007938339568336 1.0003969342233658 1.0001834469081556 13.096025702693375 13.096219891593144 1.0001984481969699 
-84.298429667913979 -160.18629853644464 94.959376858179084 -84.298429667914021 -160.18629853644470 94.959376858179027 -6.9086328082001254 -1.0471664230730986e-07 -1.5851622959463547e-07 -2.4148074099134110e-07 0.0000000000000000 2.8627759342779450e-12 1.0410014864015160e-12 2.2871710428362671e-10 1.4053511846238343e-06 -9.6590054424380353e-15 -3.8307240896309623e-15 -2.8864003804921696e-15 0.0000000000000000 -84.295478612813938 -160.18443337667750 94.973195224810283 106.11323630727971 0.0000000000000000 0.0000000000000000 0.0000000000000000 0.0000000000000000 3.0002957189312882 3.0005914584200339 1.0002957394889405 1.0001549173856739 12.606939807367629 12.606955985188279 1.0001478578757632 
-86.477029547157755 -151.39180643622234 92.620365572627321 -86.477029547157770 -151.39180643622237 92.620365572627350 -6.8576827699627190 -1.1496384035211132e-07 -2.0578845638606266e-07 -2.3410758183324448e-07 0.0000000000000000 2.9210257801969004e-12 9.1658191453403148e-13 2.3370281751478039e-10 1.4062653255772573e-06 -4.2544880786433184e-15 -5.9020491083338626e-15 -5.9680169236488375e-15 0.0000000000000000 -86.474010682800568 -151.39014911596544 92.634484883397832 94.367740677547317 0.0000000000000000 0.0000000000000000 0.0000000000000000 0.0000000000000000 3.0003335057842566 3.0006670390548753 1.0003335332713899 1.0001610192048818 12.581204421033133 12.581154315606192 1.0001667527125333 
-26.019793653568023 -132.43210435917300 138.63642580421671 -26.019793653568019 -132.43210435917302 138.63642580421671 -6.0147497668323382 1.0065458740231656e-07 -9.1012807052699555e-08 4.3023178586237343e-07 -6.0806943154712334 1.1003352634424146e-12 6.7485557073143642e-13 1.3570454135414245e-10 1.2938765513909603e-06 2.7156327818994581e-14 -1.2324400029154339e-14 5.5965300030266839e-14 1.2761090702407209e-06 -26.018656529999991 -132.43089511199997 138.64462455200004 49.421240865332216 0.0000000000000000 0.0000000000000000 0.0000000000000000 0.0000000000000000 3.0003646855117294 3.0007294031709271 1.0003647176602861 1.0002024867174524 11.202660245298272 11.202660369260531 1.0001823430005783 
-32.496785635342142 -133.95805862992509 137.59461737004921 -32.496785635342128 -133.95805862992515 137.59461737004918 -5.9714993623249324 -2.5917087200706625e-08 3.7863186004556143e-08 2.9123314165801215e-07 -5.8263812487567304 1.2961400073889517e-12 6.8876848668963930e-13 1.3793229752812050e-10 1.3126887552049599e-06 1.4782780518076778e-14 2.0575461427561108e-14 1.2610779380717393e-13 1.2482555733866784e-06 -32.495446914399992 -133.95681332000001 137.60295016000006 48.530522504776933 0.0000000000000000 0.0000000000000000 0.0000000000000000 0.0000000000000000 3.0004930733821942 3.0009861997264062 1.0004931263456185 1.0002493272617352 11.412869504707707 11.412869056175275 1.0002465303016346 
-28.419415668573237 -136.44008107535794 140.30204010710017 -28.419415668573244 -136.44008107535794 140.30204010710014 -6.0500030195488446 1.4793004225166418e-07 3.7082051237476222e-08 1.3178245551779457e-07 -6.1237485811085426 1.1749925576780285e-12 7.1639135595935609e-13 1.3214911456782552e-10 1.2833736299360953e-06 4.0654950730294251e-14 -2.0041452756231857e-14 3.7131661331934998e-14 1.2647665776452135e-06 -28.418203856399998 -136.43877710800004 140.31002455199999 44.353383947079159 0.0000000000000000 0.0000000000000000 0.0000000000000000 0.0000000000000000 3.0003991899855227 3.0007984137889259 1.0003992238040846 1.0002191972835583 11.358706250139980 11.358706582850308 1.0001995910641595 
-26.769525950417790 -129.50287714561020 143.84080522981640 -26.769525950417798 -129.50287714561014 143.84080522981640 -6.1187346469758319 2.8807286214554931e-08 3.3649888333768884e-08 1.0164476193911994e-07 0.0000000000000000 1.1244799037225804e-12 6.4266343982599662e-13 1.2461695564347508e-10 1.2750471022206917e-06 9.1352542050939462e-16 -6.9184113666419218e-15 2.8623833521738390e-14 0.0000000000000000 -26.768365491316434 -129.50173712462359 143.84833436668455 49.139845408488213 0.0000000000000000 0.0000000000000000 0.0000000000000000 0.0000000000000000 3.0003948792461426 3.0007897989260566 1.0003949196809325 1.0002168981483106 11.488208298080799 11.488207743462802 1.0001974398152571 
-40.070336374076660 -65.475697867911023 153.94715222375413 -40.070336374076653 -65.475697867911009 153.94715222375410 -6.5918850850084665 -4.4965107195323227e-08 -1.1294510201554643e-09 7.0794931833176316e-08 -6.6044038014572628 1.5233781575606231e-12 -2.1090746336882573e-13 1.0310700557236708e-10 1.2930529014021468e-06 3.6196944516306633e-15 -4.7305712792893922e-15 6.5897057242414056e-15 1.2922909741794924e-06 -40.068761925200000 -65.476070995999990 153.95338104800004 156.95717166164070 0.0000000000000000 0.0000000000000000 0.0000000000000000 0.0000000000000000 3.0003508517449848 3.0007017341387292 1.0003508823946707 1.0001758826667049 12.184360585650383 12.184358178417094 1.0001754258836384 
-52.428717010979533 -59.655265587312421 149.25698222055067 -52.428717010979533 -59.655265587312435 149.25698222055070 -6.6144847016747432 -4.2171623643036792e-08 -1.4855091546604599e-08 6.3299794975769261e-08 -6.6194663025795313 1.9001958752144780e-12 -2.8359866538485434e-13 1.1307842509578059e-10 1.2989666414832090e-06 9.0889773722449590e-16 -3.2947617494331940e-15 7.8275384419500970e-15 1.2989859366716469e-06 -52.426757905599978 -59.655776269200025 149.26381449600007 118.05125250056595 0.0000000000000000 0.0000000000000000 0.0000000000000000 0.0000000000000000 3.0003766956279776 3.0007534269758342 1.0003767313488652 1.0001775368581836 12.281212779817706 12.281214719870061 1.0001883480571419 
-35.174339322613520 -66.029410125347397 144.99221011030366 -35.174339322613505 -66.029410125347368 144.99221011030366 -6.5432373206680063 -1.6418415670312075e-08 7.7638628892730724e-09 1.5904298161456054e-08 -6.5428086960793292 1.3749948987555603e-12 -1.9717712705646928e-13 1.2217769157496508e-10 1.2974831562311349e-06 3.3776143668936374e-15 -5.2929625911885849e-15 1.0994439575755221e-14 1.2952680886703332e-06 -35.172917262399999 -66.029770167599992 144.99959110400002 155.12084301790807 0.0000000000000000 0.0000000000000000 0.0000000000000000 0.0000000000000000 3.0003758016848368 3.0007516343081337 1.0003758326240695 1.0001833788410439 12.159537242131581 12.159538029772504 1.0001878986972375 
-50.414724664322499 -66.589781389386232 142.19572980118915 -50.414724664322499 -66.589781389386204 142.19572980118923 -6.5738657663377618 -4.3419625631434598e-08 1.4749231372461787e-08 4.3050411914954706e-08 0.0000000000000000 1.8356502841203326e-12 -1.9917336009644959e-13 1.2813970370895156e-10 1.3028909465594513e-06 4.6201715025139877e-15 -1.4878863017128701e-15 1.0424125822249562e-14 0.0000000000000000 -50.412828244765279 -66.590128188430739 142.20347059834828 136.07757377940416 0.0000000000000000 0.0000000000000000 0.0000000000000000 0.0000000000000000 3.0003225947138308 3.0006452031863886 1.0003226084721755 1.0001652170618005 12.093883322822869 12.093885154141397 1.0001612909723965 
-94.562989381103776 -158.71858162533385 77.610816168021373 -94.562989381103776 -158.71858162533388 77.610816168021387 -7.3757752042803455 -5.3856725656741337e-08 -6.2563819429516123e-08 -9.8377784409888620e-08 -7.3751069080939589 3.1612333735962783e-12 1.0204532531477017e-12 2.6566713065556691e-10 1.3932942488571261e-06 -1.4409794808124367e-15 6.0067680776068511e-16 1.9152575128843442e-16 1.3937957952579461e-06 -94.559718839999974 -158.71675115199997 77.626866652000004 109.98746742214213 0.0000000000000000 0.0000000000000000 0.0000000000000000 0.0000000000000000 3.0003650267564885 3.0007300844257636 1.0003650576700311 1.0001834469081559 13.585256439458478 13.601740990385169 1.0001825121499797 
-89.685258196968576 -158.46822975278860 82.422922463110325 -89.685258196968576 -158.46822975278866 82.422922463110339 -7.2310504771291990 -1.9037750722276426e-07 -1.5161775487957451e-07 -2.0657335376988904e-07 -7.1806890287886667 3.0264575025772126e-12 1.0163944338947850e-12 2.5541356529767972e-10 1.3958285970217299e-06 -6.2428999487282723e-15 -1.4204542254085716e-15 -2.3991049959210339e-15 1.3986097797691185e-06 -89.682139475999989 -158.46640519600001 82.438353807199988 112.88451412247700 0.0000000000000000 0.0000000000000000 0.0000000000000000 0.0000000000000000 3.0003690044890536 3.0007380387001557 1.0003690342117899 1.0001834469081552 13.323511909417000 13.319505033555210 1.0001844999757787 
-102.71339081932257 -154.94577995568739 86.594091350727979 -102.71339081932260 -154.94577995568750 86.594091350727936 -7.2213909591468743 -4.5768943179305456e-08 -3.1139380055837729e-08 -2.3192417399554387e-07 0.0000000000000000 3.4196447214716874e-12 9.7807699439567131e-13 2.4653312377664887e-10 1.3928190375843119e-06 -8.7794070058404835e-16 3.6631436991691158e-16 -6.0065523540269905e-16 0.0000000000000000 -102.70986659571734 -154.94403864466588 86.608986019839278 111.02505284862640 0.0000000000000000 0.0000000000000000 0.0000000000000000 0.0000000000000000 3.0003744968599326 3.0007490265754919 1.0003745297163453 1.0001783386577232 13.350986056933513 13.347683660541765 1.0001872475538673 
-100.41051722312450 -167.17594362437791 83.654802300059814 -100.41051722312447 -167.17594362437794 83.654802300059785 -7.3209501675690261 -2.9954859415322698e-08 -4.1034175141257688e-08 -2.2013256047900067e-07 0.0000000000000000 3.3491819886009859e-12 1.1400750135615032e-12 2.5279986437531932e-10 1.3935243393468921e-06 -1.1783763484346376e-15 1.3196043705958690e-15 -1.1480997335768090e-15 0.0000000000000000 -100.40706467681501 -167.17391327890167 83.670075146830683 105.53983917324770 0.0000000000000000 0.0000000000000000 0.0000000000000000 0.0000000000000000 3.0003665898333902 3.0007332109519305 1.0003666211193016 1.0001793872475679 13.482627361700796 13.494040267887730 1.0001832937940451 
-114.62795731032442 -99.806289631969946 96.558651266364393 -114.62795731032445 -99.806289631969975 96.558651266364421 -6.9622380114788651 -3.8424142461396349e-08 -4.9883771622336436e-08 -1.6841338441271911e-07 -6.9819831313677829 3.7758576097857311e-12 2.4951525220973103e-13 2.2532066837332998e-10 1.3724040034923027e-06 3.2390419768081993e-15 6.1389519933508268e-15 1.3087616637459973e-14 1.3729357378963664e-06 -114.62406224400000 -99.805851428000011 96.572263865600007 85.211636250682801 0.0000000000000000 0.0000000000000000 0.0000000000000000 0.0000000000000000 3.0003748122752016 3.0007496480323819 1.0003748357566349 1.0001633421862846 12.880724413795312 12.880724439806471 1.0001874000206270 
-111.09134710478645 -91.097874372306492 100.20812546575465 -111.09134710478646 -91.097874372306492 100.20812546575463 -6.8766647484263990 -1.8187195012358262e-08 -1.7690171604667682e-09 -1.8720276875996515e-07 -6.8638131646595317 3.6698486589013812e-12 1.3259488992889423e-13 2.1754639409343746e-10 1.3651357194745135e-06 8.2820683593291142e-16 1.5275268961928303e-16 1.2289290175643634e-14 1.3633486807976534e-06 -111.08756211600000 -91.097641973600034 100.22126851279998 99.535403830130534 0.0000000000000000 0.0000000000000000 0.0000000000000000 0.0000000000000000 3.0004117853619170 3.0008236136575226 1.0004118282971057 1.0001762933058018 12.807348069925800 12.807348057185541 1.0002058936806866 
-112.90818959028896 -97.656192278895588 108.37471900473594 -112.90818959028894 -97.656192278895574 108.37471900473589 -6.7598917990480691 -1.4721151873151356e-08 -5.8009112664110565e-09 -1.5268458459917527e-07 -6.7564304356753269 3.7257310409564981e-12 2.2234557944811326e-13 2.0015556573271811e-10 1.3561197810956644e-06 4.5591132673104169e-15 9.3943997269631977e-15 1.8901113384071578e-14 1.3567707059055460e-06 -112.90434805199999 -97.655804887999992 108.38681131359999 128.09762094244454 0.0000000000000000 0.0000000000000000 0.0000000000000000 0.0000000000000000 3.0003767943794695 3.0007536270736774 1.0003768326952398 1.0001752478562334 12.542983675756526 12.542983666473450 1.0001883986941813 
-107.15832887267047 -103.84173488055052 100.53706428511896 -107.15832887267048 -103.84173488055056 100.53706428511896 -6.8532181600312807 -1.7996640644929571e-07 -1.3945618624215291e-08 -1.9956079840552664e-07 0.0000000000000000 3.5443483543083631e-12 3.0020647426298730e-13 2.1684921566733628e-10 1.3712375120683105e-06 1.1320280177835988e-15 9.2164828782440900e-15 9.0608438161794954e-15 0.0000000000000000 -107.15466629968294 -103.84120130723400 100.55016500991876 102.24201981555134 0.0000000000000000 0.0000000000000000 0.0000000000000000 0.0000000000000000 3.0002908523686451 3.0005816970926431 1.0002908447225989 1.0001448709076173 12.497972287449047 12.497972264811763 1.0001454110489627 
-26.891406493788306 -115.37514374420905 103.36232092159449 -26.891406493788288 -115.37514374420913 103.36232092159447 -5.5444608801839497 2.0305894223332573e-07 1.7420079551882587e-07 -3.2591553506395983e-07 0.0000000000000000 9.9347102143683333e-11 3.0196156524873740e-10 7.7752818209419682e-11 1.5166709810018140e-06 7.2623091524169385e-14 1.2725585317676665e-13 2.3331678224350876e-13 0.0000000000000000 -26.889884864405381 -115.37486796036181 103.37575244326078 96.382960025775517 0.0000000000000000 0.0000000000000000 0.0000000000000000 0.0000000000000000 3.0005736386509922 3.0011473591968358 1.0005737205472824 1.0002895907515084 10.770739526775380 10.770738924718255 1.0002868189351306 
-109.57207186911049 -103.62230175147133 152.19099512736594 -109.57207186911047 -103.62230175147130 152.19099512736597 -6.6706408017992187 6.6624926281997801e-09 1.8142939286625626e-08 7.6784196309946916e-09 -6.6779203835577770 3.6270473928977365e-12 3.0148323074130623e-13 1.0684944942718211e-10 1.2936391130131740e-06 1.0630783908842882e-15 -5.8629173401744395e-16 6.0507991430441454e-15 1.2928442918277288e-06 -109.56833416800004 -103.62177336400003 152.19744990400002 70.302883591683823 0.0000000000000000 0.0000000000000000 0.0000000000000000 0.0000000000000000 3.0003484601181349 3.0006969433591739 1.0003484832413823 1.0001737913083750 12.320433976394874 12.320433436314655 1.0001742265636155 