# For a description of the Tecplot format see the Tecplot User's guide.
#
Variables=x,y,z,s_u,s_v,s_w,s_p,mono_f_vel_u,mono_f_vel_v,mono_f_vel_w,const,u_nu,v_nu,w_nu,p_nu,x_nu,y_nu,z_nu,const,u_ref,v_ref,w_ref,vol_ref,x_ref,y_ref,z_ref,const,I1,I2,I3,J,p1,p2,p3
Zone f=fepoint, n=3174, e=16683, et=brick, c=black
-24.9311 -154.204 111.950 -24.931054472080305 -154.20383640973117 111.95027592435439 -54.749734275391418 -1.9102977807466665e-06 -8.3029301573927672e-06 -7.7211828233560816e-06 -54.217198654660820 4.6122411445637105e-12 3.1560587476775481e-12 3.4325774445065349e-09 6.5930638783139869e-05 -4.9545613167488435e-13 -1.8446129262877815e-12 1.5591938958764776e-12 6.5489866882049525e-05 -24.903554063199991 -154.16086777200002 112.24023381839994 89.724962256112903 0.0000000000000000 0.0000000000000000 0.0000000000000000 0.0000000000000000 3.0094374802291579 3.0188887395197392 1.0094512436243268 1.0049577990683067 114.11214738416453 114.11215780846436 1.0047143998631209 
-37.481001410630732 -155.17254951218428 114.64592553840360 -37.481001410630718 -155.17254951218425 114.64592553840352 -50.988090381676315 6.5582895886360797e-06 -7.9960422487987497e-06 -4.1343374474034057e-06 0.0000000000000000 2.0609372617101549e-09 -9.9951030912597657e-09 -7.3060037901396057e-09 6.7498942958973176e-05 3.2065970909939011e-12 -5.5259192319590122e-12 3.2042264407144121e-12 0.0000000000000000 -37.438273663334591 -155.10473791080037 114.93291110338620 89.036758072416930 0.0000000000000000 0.0000000000000000 0.0000000000000000 0.0000000000000000 3.0140258115370258 3.0281064618860829 1.0140807007520110 1.0066374896749564 117.26920031431168 117.26920319261718 1.0070161787091259 
-31.575274952852773 -147.91833899450785 119.59591466493868 -31.575274952852759 -147.91833899450788 119.59591466493872 -48.492354005687517 2.2881253546982101e-06 -6.0233111612098030e-06 -3.4958630011253248e-07 0.0000000000000000 5.4760536383202671e-12 2.8847063626713521e-12 3.1422997537333686e-09 6.6051022631319096e-05 1.2452782500050561e-12 -1.8892384433732344e-12 1.4200699059349375e-12 0.0000000000000000 -31.542619574254449 -147.87907313389167 119.86135157363466 98.260374494724786 0.0000000000000000 0.0000000000000000 0.0000000000000000 0.0000000000000000 3.0114395053026848 3.0229116899705368 1.0114721964121862 1.0059376341679833 109.01433019074497 109.01433639260765 1.0057191444961020 
-28.678063332296922 -143.00375227060022 111.83419073828181 -28.678063332296919 -143.00375227060022 111.83419073828188 -47.802480597290618 3.1441063845117921e-06 -6.7830737358889836e-06 -4.9629013403612068e-06 0.0000000000000000 5.1002084500151320e-12 2.6633001359854802e-12 3.4369944668100057e-09 6.8321210946531861e-05 6.5379844992252223e-12 -1.5806440872877768e-12 1.8514558942185264e-12 0.0000000000000000 -28.647655777685479 -142.96738158566356 112.12452093910819 112.69127588814607 0.0000000000000000 0.0000000000000000 0.0000000000000000 0.0000000000000000 3.0121544668564995 3.0243504514187736 1.0121960229576077 1.0059777065164350 108.77988928785956 108.77986360549116 1.0060794760157077 
-24.288862355572416 -200.50240274582876 73.312670603205291 -24.288862355572412 -200.50240274582873 73.312670603205291 -89.693676544399594 1.6063237706867849e-07 -7.5596677911390621e-09 1.5239371589769018e-07 -89.933719642199222 4.5305287299512997e-12 5.1571941162009693e-12 4.8995549839503391e-09 6.5879262797556066e-05 7.5183162898738046e-14 1.7897570761323785e-15 1.6125696053108885e-14 6.5869090093730425e-05 -24.261860196399997 -200.43215969199997 73.726546483199982 142.71380061529433 0.0000000000000000 0.0000000000000000 0.0000000000000000 0.0000000000000000 3.0091889513633743 3.0183974187235760 1.0092084792333080 1.0045882649579823 175.62845729920821 175.62845730779438 1.0045936900213279 
-24.184318811056883 -187.70177993409902 74.901100743676380 -24.184318811056880 -187.70177993409902 74.901100743676366 -88.853495642001917 9.7845627676872605e-07 -1.4530151635669553e-06 -4.4961854545597593e-07 -89.102722594461298 4.5153152050669831e-12 4.5962122996456856e-12 4.8392410079145520e-09 6.5876602095655401e-05 6.5336221773831257e-14 6.4309596634070251e-16 1.8710126113612268e-14 6.5879563744771456e-05 -24.157397762799999 -187.63907770800003 75.309882232799993 165.73632395326644 0.0000000000000000 0.0000000000000000 0.0000000000000000 0.0000000000000000 3.0091896195518042 3.0183986308724897 1.0092090229666788 1.0045882649579787 174.22459919724884 174.22459919116051 1.0045939540699746 
-34.920793297997704 -195.47861248227014 81.208125432788222 -34.920793297997733 -195.47861248227028 81.208125432788179 -88.500790650802458 3.0142630755613469e-07 -1.1492456008058315e-06 -2.3256901225316699e-06 0.0000000000000000 5.9139464159141397e-12 4.9383830358351588e-12 4.5997885500526081e-09 6.5937740547889411e-05 7.5868380313479791e-14 -1.7882568338089783e-14 2.1474167760110667e-14 0.0000000000000000 -34.885542273181727 -195.41132893576267 81.596679120775832 139.46796289390394 0.0000000000000000 0.0000000000000000 0.0000000000000000 0.0000000000000000 3.0091127961977087 3.0182449336854811 1.0091321493978851 1.0045058469999857 173.45947339324476 173.45947336524000 1.0045556918325653 
-18.845379752187121 -194.59646387576714 81.023810177214344 -18.845379752187117 -194.59646387576711 81.023810177214315 -89.232030275392560 4.8379546218735467e-07 -7.0756174154355749e-07 -1.0767613590512291e-06 0.0000000000000000 3.8209903990837893e-12 4.8969578392288327e-12 4.6067811787509072e-09 6.5809368023877086e-05 5.1384336731104877e-14 1.3172021231586454e-14 4.4092329538580869e-14 0.0000000000000000 -18.822600960987238 -194.52970000168264 81.412954998504986 111.95285379220412 0.0000000000000000 0.0000000000000000 0.0000000000000000 0.0000000000000000 3.0092054978515859 3.0184304855205109 1.0092249994956897 1.0045882649579796 175.32325805244034 175.32325805061154 1.0046019162697382 
-22.689743544506168 -103.22084398523972 42.726710809077716 -22.689743544506168 -103.22084398523974 42.726710809077709 -90.743458803601868 -1.6938379728265827e-06 1.9342373665336831e-06 -2.6076628088404776e-06 -91.228776759338956 4.3214182232631515e-12 9.4278751472387512e-13 6.0608226215563840e-09 6.4143158434684750e-05 5.0021105962985353e-14 -7.9205190273283776e-14 1.2203772666768788e-13 6.4170697420380009e-05 -22.663982073999996 -103.20790935200000 43.238681550399988 69.202643319072678 0.0000000000000000 0.0000000000000000 0.0000000000000000 0.0000000000000000 3.0091710702399612 3.0183615650393758 1.0091905065918654 1.0045882649579809 177.56706255801052 177.20964920885496 1.0045847476895391 
-30.183236040869325 -110.79050085076383 46.488851135172958 -30.183236040869321 -110.79050085076385 46.488851135172972 -89.317807808782888 1.0420204443288218e-07 3.1100042123725479e-06 -3.5048153963677095e-06 -88.751049366788394 5.2979842735112470e-12 1.2779083347069786e-12 5.9179786626728506e-09 6.4083574405567845e-05 -8.1263703585183562e-15 -1.1175977537530938e-13 1.9818571465532343e-13 6.4118723971966102e-05 -30.151660686400003 -110.77310694400001 46.988755992800002 74.715282964229786 0.0000000000000000 0.0000000000000000 0.0000000000000000 0.0000000000000000 3.0092206555523435 3.0184608297167688 1.0092401859871638 1.0045882649579811 174.86626390111789 175.06023067023918 1.0046094823078326 
-18.757861203258521 -103.58019464617597 49.518230227715868 -18.757861203258525 -103.58019464617594 49.518230227715883 -88.256281672459281 -2.0592398761324687e-06 1.6291630479353832e-06 -3.7535163804913552e-06 -88.343763925396175 3.8108474709197537e-12 9.6245927894145211e-13 5.8029613336785255e-09 6.4061417512085040e-05 6.4586402163725730e-14 -7.0684452245127029e-14 1.3508756740959094e-13 6.4039567299114140e-05 -18.735150314000002 -103.56704831999998 50.008419303199993 79.719497061372692 0.0000000000000000 0.0000000000000000 0.0000000000000000 0.0000000000000000 3.0091751308333130 3.0183696836362466 1.0091945645838292 1.0045882649579800 173.13498741518944 173.35481585264549 1.0045867626976823 
-25.519836452073910 -98.497741444985706 50.495182151606336 -25.519836452073910 -98.497741444985721 50.495182151606315 -89.109697176805426 -2.9661351697006564e-08 8.2032611245808121e-07 -5.6954941644861075e-06 0.0000000000000000 4.6913167794926380e-12 7.4544537209675354e-13 5.7658722241171745e-09 6.4075658409091420e-05 -1.4940760056421285e-14 -5.2004535463020870e-14 2.1541501166652102e-13 0.0000000000000000 -25.491879232152165 -98.487589184379729 50.982237960580505 72.292163684038698 0.0000000000000000 0.0000000000000000 0.0000000000000000 0.0000000000000000 3.0091643381909985 3.0183481631210523 1.0091838368195811 1.0045882649579807 174.45422831299663 175.26069893764350 1.0045814177917445 
-25.320709805945626 -104.23780420647513 108.45280327136260 -25.320709805945626 -104.23780420647516 108.45280327136257 -48.342905647710424 2.1730219449690300e-06 7.4107634238235670e-06 -2.1318689160940158e-06 0.0000000000000000 9.1124868394637254e-09 8.9822559991945158e-09 8.7706526060088167e-09 6.3146835382937394e-05 -4.4912708715372319e-12 7.1993117895972512e-13 1.5248605399449406e-11 0.0000000000000000 -25.283559732051039 -104.23282252886388 108.75695162467670 96.378087069502698 0.0000000000000000 0.0000000000000000 0.0000000000000000 0.0000000000000000 3.0114300719635936 3.0228851792451836 1.0114550804949476 1.0061116076777634 107.36065550697900 107.36117240297833 1.0057105129955533 
-25.953041856333350 -118.02264775465785 110.36469634929708 -25.953041856333353 -118.02264775465791 110.36469634929702 -42.523132782690467 4.2346480752619001e-06 1.5058281973391727e-06 -3.0180634905294615e-06 0.0000000000000000 9.5909796993489342e-09 6.3402695865603499e-09 1.4253057421665571e-08 6.5688302459510791e-05 -4.0852808457667500e-12 7.2714412347602646e-12 1.1813380428420035e-11 0.0000000000000000 -25.913646985361510 -118.01095136745833 110.66456878241424 88.846747377876298 0.0000000000000000 0.0000000000000000 0.0000000000000000 0.0000000000000000 3.0164586580272315 3.0329855078266368 1.0165269061669842 1.0075656867025795 107.06301554819534 107.06328553821228 1.0082303569221305 
-36.298119658400111 -112.71682851347417 111.74663591601728 -36.298119658400090 -112.71682851347408 111.74663591601724 -42.868652584781607 -1.4470630081966143e-06 6.0776596992730969e-06 4.1547942155730325e-06 0.0000000000000000 1.2403958306023201e-08 1.4030991846908723e-08 1.9048046230660794e-08 6.2738897597549383e-05 2.0193123079832771e-12 1.4711844979575143e-12 -2.1363173400418965e-12 0.0000000000000000 -36.236867317722961 -112.72601430119678 112.03758904139967 95.996160021407249 0.0000000000000000 0.0000000000000000 0.0000000000000000 0.0000000000000000 3.0171167452002563 3.0343078642697208 1.0171911974522871 1.0081007886177062 108.92509223469223 108.92493740075302 1.0085591010332602 
-33.431783643102513 -105.08406286044064 105.30894487864143 -33.431783643102534 -105.08406286044058 105.30894487864137 -48.271254769989277 3.8945589436833718e-07 8.6480395170470926e-06 -3.8062578300523619e-06 0.0000000000000000 1.3303153535489669e-08 1.7428772290448028e-08 1.2269515915882729e-08 6.4627548021137262e-05 -4.1821886217136643e-12 4.9484689453158630e-13 1.1192438394176924e-11 0.0000000000000000 -33.380789828628046 -105.09637623893835 105.63342596379557 85.433794965156210 0.0000000000000000 0.0000000000000000 0.0000000000000000 0.0000000000000000 3.0143112219719135 3.0286652708683026 1.0143540468189096 1.0068283012314558 111.44133978245337 111.44151497873374 1.0071513240955676 
-112.31472002793834 -160.71028117860126 124.41428754443243 -112.31472002793838 -160.71028117860126 124.41428754443244 -71.387507665713471 2.3420087813578854e-07 -7.4736641028916482e-07 -2.1271901803217790e-06 -71.283058193250284 1.5990094665019328e-11 3.4242886304269859e-12 2.9593643091629929e-09 6.3871750333542978e-05 -3.9858233357581260e-14 8.8748845691114943e-14 8.1993818396621869e-13 6.3822635032666480e-05 -112.21942232800005 -160.66347960400000 124.66427103520003 147.55923210393107 0.0000000000000000 0.0000000000000000 0.0000000000000000 0.0000000000000000 3.0100612088925343 3.0201497160921940 1.0100885278201803 1.0045882649579772 145.60017119446704 145.60017177473148 1.0050321558685662 
-99.618064372868986 -158.13997637131840 116.30886206977064 -99.618064372868972 -158.13997637131837 116.30886206977071 -72.213872169182608 -2.1145133462165543e-06 -1.3755472738433512e-06 -4.3216706196685096e-06 0.0000000000000000 1.4329881031782676e-11 3.3324315529270621e-12 3.2671007010875996e-09 6.4459392025970023e-05 -2.5103852015162959e-13 -3.5631974668844648e-13 9.1683390969466724e-14 0.0000000000000000 -99.532617471171264 -158.09468895943013 116.58484116745363 117.70414803503969 0.0000000000000000 0.0000000000000000 0.0000000000000000 0.0000000000000000 3.0069776390708545 3.0139452095855703 1.0069675374462446 1.0036873545787377 140.48027663996842 140.48027695525710 1.0034772885318803 
-104.43174418504432 -148.89482091725407 120.62963908899469 -104.43174418504438 -148.89482091725407 120.62963908899472 -70.474881006528179 -1.8506857859135688e-06 -1.4533637411630339e-06 -2.0305182630456629e-06 0.0000000000000000 1.4954423116497750e-11 2.9145991176093840e-12 3.1030443770063698e-09 6.4063258190949116e-05 -5.6501495577139530e-13 2.3397248940660409e-13 3.9617758486778154e-13 0.0000000000000000 -104.34256255272837 -148.85497981259945 120.89176065121424 119.29379793442074 0.0000000000000000 0.0000000000000000 0.0000000000000000 0.0000000000000000 3.0071767040947459 3.0143540262804205 1.0071773161879067 1.0037396841234068 137.91941984094819 137.91941978529587 1.0035816825231221 
-100.61663134235592 -162.33081094402252 124.31752159669992 -100.61663134235594 -162.33081094402255 124.31752159669988 -70.847145718210143 -1.2837886871091301e-06 -2.1692776440830181e-06 -1.8692231887073077e-06 0.0000000000000000 1.4466702141779919e-11 3.5091096695083479e-12 2.9630319309248421e-09 6.3953411894364837e-05 -4.7588066991900318e-13 -1.0643020429210663e-13 8.6373429709545116e-13 0.0000000000000000 -100.53040969477119 -162.28305471776312 124.56781543385799 141.51484144144280 0.0000000000000000 0.0000000000000000 0.0000000000000000 0.0000000000000000 3.0073943409235979 3.0147956243160694 1.0074012803454275 1.0038109730331561 138.93782562270869 138.93782486803460 1.0036934098309127 
-78.469566249875285 -148.83724517487107 89.084937630431625 -78.469566249875271 -148.83724517487104 89.084937630431597 -72.618512321772670 -5.2721253855567767e-06 -3.5258429467876385e-06 -1.7645578606006254e-06 -72.576579888717006 1.1585548492787366e-11 2.9345553764770216e-12 4.3007151173668490e-09 6.5594357978186721e-05 -5.4366597302781698e-13 1.1323499335488365e-13 -1.1559254413760439e-13 6.6003734717077987e-05 -78.400527573600002 -148.79743798799998 89.448228916799977 108.06316173413846 0.0000000000000000 0.0000000000000000 0.0000000000000000 0.0000000000000000 3.0097831684316962 3.0195890371973984 1.0098058865508881 1.0045882649579798 147.21227159949279 147.21227155113073 1.0048912793954285 
-80.219759866294766 -162.58254884067736 87.404328405694187 -80.219759866294766 -162.58254884067736 87.404328405694216 -80.541974122572327 -3.1227690711379932e-06 -5.5905531341056588e-06 -3.1808691846261555e-06 -80.802790008392464 1.1807246153017203e-11 3.5165620415611439e-12 4.3645325131791424e-09 6.5554627549868342e-05 -4.0729137636340061e-13 1.4135343711958506e-13 -1.5163953463525509e-13 6.5605828832042556e-05 -80.149363288800018 -162.53464431600008 87.773009718400019 109.57810873427631 0.0000000000000000 0.0000000000000000 0.0000000000000000 0.0000000000000000 3.0099225582245572 3.0198665863835696 1.0099440416244962 1.0045882649579807 161.45536122025868 161.45536122498157 1.0049601965795001 
-84.369094483582330 -160.23095257951877 94.627680545791023 -84.369094483582373 -160.23095257951891 94.627680545791023 -76.998631436911950 -2.4272104933764194e-06 -3.8958670299837669e-06 -5.8833253902417780e-06 0.0000000000000000 1.2346217798109295e-11 3.4248714975149137e-12 4.0902807807441385e-09 6.5546055744984799e-05 -1.6285316901100918e-13 -5.5455427464559027e-14 2.9839400867822069e-13 0.0000000000000000 -84.295478612813938 -160.18443337667750 94.973195224810283 106.11323630727971 0.0000000000000000 0.0000000000000000 0.0000000000000000 0.0000000000000000 3.0073960295961784 3.0148051977343422 1.0074091718182130 1.0038731518036899 149.37379778227748 149.37379778767988 1.0036971611663359 
-86.549318096879020 -151.43148456537671 92.281445391895630 -86.549318096879020 -151.43148456537668 92.281445391895645 -75.694151765295743 -2.6783273673531049e-06 -5.0556864234867756e-06 -5.7060185719930104e-06 0.0000000000000000 1.2633751683699401e-11 3.0351693380836764e-12 4.1793520866306721e-09 6.5522923144503088e-05 3.2316446331348841e-14 -2.6292288949817630e-13 8.4720408726909292e-14 0.0000000000000000 -86.474010682800568 -151.39014911596544 92.634484883397832 94.367740677547317 0.0000000000000000 0.0000000000000000 0.0000000000000000 0.0000000000000000 3.0083385445099524 3.0166943900875229 1.0083558575087925 1.0040301589906540 148.69662107090605 148.69662108619966 1.0041692233251387 
-26.047022771494746 -132.46105510982670 138.43962292016428 -26.047022771494749 -132.46105510982670 138.43962292016428 -55.540984243397801 2.2435254284203347e-06 -1.9881172746629988e-06 9.2349973354117832e-06 -56.998521291481218 4.7568823879906574e-12 2.2190166371061078e-12 2.4268640430591404e-09 5.9117782775386817e-05 1.1828009421857018e-12 -6.0093197377979225e-13 2.5871009089126759e-12 5.8352614827975688e-05 -26.018656529999991 -132.43089511199997 138.64462455200004 49.421240865332216 0.0000000000000000 0.0000000000000000 0.0000000000000000 0.0000000000000000 3.0091003008818329 3.0182198730730176 1.0091195873038676 1.0050071532351343 115.83032724396934 115.83032774665251 1.0045498400284649 
-32.528842125445628 -133.98787276382032 137.39459693548122 -32.528842125445628 -133.98787276382029 137.39459693548130 -54.503913714948361 -4.6403441083395144e-07 1.0374375478770854e-06 5.9950938211953740e-06 -51.113156133084793 5.6008045423716624e-12 2.2883778205695648e-12 2.4665394171563548e-09 5.9845926461404210e-05 5.0054328931414369e-13 9.7543782327924207e-13 5.7548545990417764e-12 5.5312428627316239e-05 -32.495446914399992 -133.95681332000001 137.60295016000006 48.530522504776933 0.0000000000000000 0.0000000000000000 0.0000000000000000 0.0000000000000000 3.0120534266198371 3.0241407850372166 1.0120873823440706 1.0060660959310690 120.54528930018704 120.54528700532366 1.0060244941573184 
-28.448433250741164 -136.47129953481223 140.11038135318068 -28.448433250741171 -136.47129953481223 140.11038135318066 -56.121285791050774 3.0852052998734828e-06 1.1036394764201008e-06 2.8562325279056224e-06 -57.659890381701310 5.0703226339710028e-12 2.3823998329675082e-12 2.3634121326665532e-09 5.8725442172426038e-05 1.6781143983093607e-12 -4.5190694229392609e-13 1.5569803307878600e-12 5.7928154145293506e-05 -28.418203856399998 -136.43877710800004 140.31002455199999 44.353383947079159 0.0000000000000000 0.0000000000000000 0.0000000000000000 0.0000000000000000 3.0098280679323586 3.0196765298429802 1.0098484719242367 1.0053626832305749 118.79558538021705 118.79558268454618 1.0049117958753333 
-26.797313851934181 -129.53017054274082 143.66007569778796 -26.797313851934181 -129.53017054274085 143.66007569778790 -57.740556889113279 7.6951538320844031e-07 9.3969503882060063e-07 2.0749720647162578e-06 0.0000000000000000 4.8567434796087383e-12 2.0911328224570980e-12 2.2286550382943915e-09 5.8253683140595124e-05 -7.4356041115672881e-14 -2.4881336752026375e-13 1.2048646637604874e-12 0.0000000000000000 -26.768365491316434 -129.50173712462359 143.84833436668455 49.139845408488213 0.0000000000000000 0.0000000000000000 0.0000000000000000 0.0000000000000000 3.0098899685041278 3.0198056251800285 1.0099156735084263 1.0053404613513921 122.19550605588752 122.19550694677987 1.0049453650415534 
-40.108037513458441 -65.466764757702606 153.79763541847484 -40.108037513458427 -65.466764757702578 153.79763541847481 -68.659843219492174 -1.0287969826658952e-06 -1.5423936963549823e-08 1.6023283455075080e-06 -68.945580650541260 6.5894997791637877e-12 -6.7768707312509956e-13 1.8437441573482258e-09 6.0484592601406388e-05 4.9719265293738615e-13 -2.9372439125906044e-13 6.4956020977426952e-14 6.0494486272781692e-05 -40.068761925200000 -65.476070995999990 153.95338104800004 156.95717166164070 0.0000000000000000 0.0000000000000000 0.0000000000000000 0.0000000000000000 3.0088444352087627 3.0177081180894896 1.0088636971115608 1.0044188893201771 138.24061274450420 138.24070007444223 1.0044221056263714 
-52.475628985113666 -59.643039282946333 149.09298016211267 -52.475628985113651 -59.643039282946340 149.09298016211272 -69.209142391712049 -9.7616263537454246e-07 -3.1025410349344394e-07 1.3793548302517220e-06 -69.328487742411767 8.1986743782902494e-12 -9.3527963151984750e-13 2.0223773766758764e-09 6.0965694045425959e-05 2.2908318322386260e-13 -6.1746792119845388e-14 3.3117902630255581e-14 6.0923600818867374e-05 -52.426757905599978 -59.655776269200025 149.26381449600007 118.05125250056595 0.0000000000000000 0.0000000000000000 0.0000000000000000 0.0000000000000000 3.0094188446388790 3.0188598347398043 1.0094410055372440 1.0044529625953720 140.46193648567984 140.46189370534103 1.0047094835092787 
-35.208391422439554 -66.020790304922855 144.81503660954289 -35.208391422439554 -66.020790304922883 144.81503660954289 -67.586356801428025 -3.6319932935914739e-07 1.9101942351799895e-07 2.6014530594688932e-07 -67.569299621379415 5.9524052353765447e-12 -6.5484423439343686e-13 2.1848072240260308e-09 6.0504938137022360e-05 3.1699046689951176e-13 -3.8974401601411907e-13 5.3645954664319905e-13 6.0310677103583939e-05 -35.172917262399999 -66.029770167599992 144.99959110400002 155.12084301790807 0.0000000000000000 0.0000000000000000 0.0000000000000000 0.0000000000000000 3.0093535569474246 3.0187263738069054 1.0093728287907895 1.0045795065449339 137.60071246490858 137.60071057689828 1.0046755020122833 
-50.460135588178069 -66.581478626404135 142.00991957186562 -50.460135588178069 -66.581478626404092 142.00991957186565 -68.298781706914767 -1.0117288321652512e-06 4.0766364593696442e-07 9.0955905961226493e-07 0.0000000000000000 7.9326857582717736e-12 -6.3379856918288624e-13 2.2912851616041507e-09 6.1003751646928901e-05 4.5628622608522270e-13 -8.3448879851298937e-14 4.0140750699672622e-13 0.0000000000000000 -50.412828244765279 -66.590128188430739 142.20347059834828 136.07757377940416 0.0000000000000000 0.0000000000000000 0.0000000000000000 0.0000000000000000 3.0081198320672371 3.0162489846807712 1.0081291481357555 1.0041608957716714 136.10735090734718 136.10733776988172 1.0040562170261322 
-94.641304484144044 -158.76240523580026 77.225540072093551 -94.641304484144044 -158.76240523580029 77.225540072093537 -88.284756320739064 -1.2883109751327583e-06 -1.5823705974846477e-06 -2.4074259985459230e-06 -88.270068566834169 1.3679331972715760e-11 3.3641422980679181e-12 4.7509878253748630e-09 6.5231407263913565e-05 5.4439594787880315e-15 -1.3343673461378198e-14 3.1569730194414520e-14 6.5224128447519871e-05 -94.559718839999974 -158.71675115199997 77.626866652000004 109.98746742214213 0.0000000000000000 0.0000000000000000 0.0000000000000000 0.0000000000000000 3.0091330980133462 3.0182855143792087 1.0091524281971718 1.0045882649579814 173.14712138705960 173.14712138844214 1.0045657732156117 
-89.759937874201569 -158.51191171444196 82.052508211819983 -89.759937874201569 -158.51191171444196 82.052508211819969 -84.774087404853404 -4.5748977876593895e-06 -3.7696658622986055e-06 -5.0170143897790967e-06 -83.553714094264734 1.3053457620371136e-11 3.3443386948661665e-12 4.5677215343431499e-09 6.5293977597170587e-05 -1.4486282935986223e-13 -5.1560621483104980e-14 -9.2033788783244039e-14 6.5315756392675972e-05 -89.682139475999989 -158.46640519600001 82.438353807199988 112.88451412247700 0.0000000000000000 0.0000000000000000 0.0000000000000000 0.0000000000000000 3.0092308824934433 3.0184803594992555 1.0092494877280258 1.0045882649579807 166.79809774511381 166.79809774300037 1.0046140337979141 
-102.79778050470645 -154.98746891913490 86.236559454930855 -102.79778050470652 -154.98746891913478 86.236559454930870 -84.452885968039396 -1.0744944561079207e-06 -8.1249362342751236e-07 -5.6940599843251700e-06 0.0000000000000000 1.4744021975543475e-11 3.1926822297023701e-12 4.4088708239797825e-09 6.5238016516421763e-05 -8.8098235282913614e-15 -6.3441244885480989e-14 1.7574751234025585e-14 0.0000000000000000 -102.70986659571734 -154.94403864466588 86.608986019839278 111.02505284862640 0.0000000000000000 0.0000000000000000 0.0000000000000000 0.0000000000000000 3.0093615687625479 3.0187436156434870 1.0093820590604958 1.0044632518060979 167.31134686905452 167.31134686362967 1.0046802124498024 
-100.49319055191010 -167.22455240092509 83.288192621159638 -100.49319055191015 -167.22455240092503 83.288192621159666 -86.958991526518460 -6.8286496114702767e-07 -1.0493757544345359e-06 -5.4117498364537845e-06 0.0000000000000000 1.4452338631398830e-11 3.7050917889303037e-12 4.5208067289692622e-09 6.5231488292809858e-05 -5.3487075661816880e-14 3.8246774522774943e-14 -5.9877796733949092e-14 0.0000000000000000 -100.40706467681501 -167.17391327890167 83.670075146830683 105.53983917324770 0.0000000000000000 0.0000000000000000 0.0000000000000000 0.0000000000000000 3.0091690400724489 3.0183576079985577 1.0091885798456248 1.0044885267526757 170.65216239733581 170.65216239842414 1.0045838034896593 
-114.72122705097757 -99.816780732675142 96.231894198109700 -114.72122705097762 -99.816780732675156 96.231894198109700 -77.787179927996903 -9.4379433768264986e-07 -1.2458529289103704e-06 -4.1031148020910779e-06 -78.270029537820719 1.6299527767924088e-11 7.9720258172599766e-13 4.0293726133455721e-09 6.4974814686929929e-05 1.5215333468495470e-13 3.2337956289708045e-13 4.6047053297347388e-13 6.4983140782714585e-05 -114.62406224400000 -99.805851428000011 96.572263865600007 85.211636250682801 0.0000000000000000 0.0000000000000000 0.0000000000000000 0.0000000000000000 3.0093700332225164 3.0187553371135496 1.0093852972604049 1.0041023180899318 155.26664868134134 155.26664866852823 1.0046815145080608 
-111.18198097160275 -91.103438261273268 99.892639536422038 -111.18198097160278 -91.103438261273283 99.892639536422024 -75.686807122212414 -4.4254775740595554e-07 -5.2035626990411846e-08 -4.5452176899632469e-06 -75.379756468126871 1.5837147565589405e-11 4.2917058795666213e-13 3.8903860133387988e-09 6.4686087929206881e-05 3.7879596351819836e-14 4.1190439052537411e-15 5.0311891587930267e-13 6.4549957359076260e-05 -111.08756211600000 -91.097641973600034 100.22126851279998 99.535403830130534 0.0000000000000000 0.0000000000000000 0.0000000000000000 0.0000000000000000 3.0102350474182478 3.0204962778358255 1.0102612529128900 1.0044165329172976 153.34519089952008 153.34519087748544 1.0051179310809852 
-113.00017756946001 -97.665466856892465 108.08445501293987 -113.00017756946001 -97.665466856892436 108.08445501293983 -72.831288696505212 -3.7697756402322928e-07 -1.8102171992142449e-07 -3.7860841506833349e-06 -72.757938844894866 1.6070794001121769e-11 7.1520567246352584e-13 3.5793570329900599e-09 6.4378096046790041e-05 2.2707381941295474e-13 4.5893747117101731e-13 8.9059824503124497e-13 6.4414848359015684e-05 -112.90434805199999 -97.655804887999992 108.38681131359999 128.09762094244454 0.0000000000000000 0.0000000000000000 0.0000000000000000 0.0000000000000000 3.0094062635515675 3.0188361933976440 1.0094299458192266 1.0043965954274079 146.94308666204691 146.94308666760475 1.0047039481276268 
-107.24603141846032 -103.85450923172159 100.22259425970219 -107.24603141846033 -103.85450923172162 100.22259425970226 -75.143333342460053 -4.3826953614215480e-06 -3.7087379502127333e-07 -4.8527096190013125e-06 0.0000000000000000 1.5330566677240753e-11 9.7789137898374179e-13 3.8778511513015701e-09 6.5011647995802570e-05 -1.5801882373783547e-13 4.2133251783062810e-13 7.2169558929727722e-14 0.0000000000000000 -107.15466629968294 -103.84120130723400 100.55016500991876 102.24201981555134 0.0000000000000000 0.0000000000000000 0.0000000000000000 0.0000000000000000 3.0073894297008263 3.0147756741021259 1.0073862250171677 1.0036714393576347 146.15652933834139 146.15652934329452 1.0036859079934148 
-26.926478336771993 -115.38387459388892 103.04135722486240 -26.926478336771993 -115.38387459388888 103.04135722486247 -45.545802175791742 4.5130405145861257e-06 3.3699468447143789e-06 -7.1222486081160371e-06 0.0000000000000000 1.0985525402697290e-08 7.5248627439250165e-09 5.7415828508753263e-09 7.0049548706759790e-05 2.4719356419593642e-12 6.2212266299455992e-12 1.1697668021845735e-11 0.0000000000000000 -26.889884864405381 -115.37486796036181 103.37575244326078 96.382960025775517 0.0000000000000000 0.0000000000000000 0.0000000000000000 0.0000000000000000 3.0138149880342646 3.0276778135561400 1.0138628507004410 1.0069519078121481 107.05640417786402 107.05893686125047 1.0069074525905182 
-109.66157340366173 -103.63495194762025 152.03605455703968 -109.66157340366175 -103.63495194762025 152.03605455703971 -70.333246323325639 1.4157882031172521e-07 4.2147091560409353e-07 1.1323117908265789e-07 -70.500717868262200 1.5643372014428891e-11 9.7071656268710192e-13 1.9106267679092070e-09 6.2054273708333815e-05 2.0818154038172371e-14 -6.8955382842240209e-14 2.0261871217645024e-13 6.2005968103673873e-05 -109.56833416800004 -103.62177336400003 152.19744990400002 70.302883591683823 0.0000000000000000 0.0000000000000000 0.0000000000000000 0.0000000000000000 3.0087389170492549 3.0174926465033640 1.0087537353435745 1.0043642417755305 141.01558957503246 141.01558946995013 1.0043673954312546 