# For a description of the Tecplot format see the Tecplot User's guide.
#
Variables=x,y,z,s_u,s_v,s_w,s_p,mono_f_vel_u,mono_f_vel_v,mono_f_vel_w,const,u_nu,v_nu,w_nu,p_nu,x_nu,y_nu,z_nu,const,u_ref,v_ref,w_ref,vol_ref,x_ref,y_ref,z_ref,const,I1,I2,I3,J,p1,p2,p3
Zone f=fepoint, n=3174, e=16683, et=brick, c=black
-24.9922 -154.299 111.301 -24.992169729582887 -154.29926985368186 111.30079858848693 -106.67760398700847 -5.7290337062972635e-06 -2.4468977380092275e-05 -2.4037139147319142e-05 -104.85003930639942 2.8659796064145477e-10 1.9595344791234481e-10 2.1425883689474290e-07 0.00040925404011126040 -3.4675009927987901e-13 -5.8525431912918059e-12 2.0577703233709472e-11 0.00040489009464659583 -24.903554063199991 -154.16086777200002 112.24023381839994 89.724962256112903 0.0000000000000000 0.0000000000000000 0.0000000000000000 0.0000000000000000 3.0306939297165538 3.0615392590983976 1.0308449036917897 1.0159410894314798 247.35452385572211 247.36184025847109 1.0153035285108785 
-37.572945125971593 -155.31835472782777 114.00125849083612 -37.572945125971607 -155.31835472782771 114.00125849083621 -95.486987737398636 1.9465364135468056e-05 -2.2602000744296038e-05 -1.2743600541447867e-05 0.0000000000000000 2.1149426171390315e-09 7.1337890423441350e-08 8.8688113604668081e-08 0.00041435542543553835 1.0606900318269242e-11 -2.7046346078863290e-11 2.4571928221764822e-11 0.0000000000000000 -37.438273663334591 -155.10473791080037 114.93291110338620 89.036758072416930 0.0000000000000000 0.0000000000000000 0.0000000000000000 0.0000000000000000 3.0441367528889418 3.0888147561365709 1.0446795923600087 1.0209027149312422 255.94617055148780 255.94688138920179 1.0220997639363281 
-31.647846305539428 -148.00554856190774 119.00136193903980 -31.647846305539442 -148.00554856190774 119.00136193903975 -87.934896507701808 6.6330190532413547e-06 -1.6736222880719953e-05 -2.3587337990524854e-06 0.0000000000000000 3.4031950868484984e-10 1.7906567895131786e-10 1.9613952284558422e-07 0.00040527816193911069 4.3060161723490882e-12 -4.1176018736843188e-12 6.5206878556103526e-12 0.0000000000000000 -31.542619574254449 -147.87907313389167 119.86135157363466 98.260374494724786 0.0000000000000000 0.0000000000000000 0.0000000000000000 0.0000000000000000 3.0363752649174827 3.0730804502990172 1.0367056174561353 1.0187972416745941 231.28180720329360 231.28162547199281 1.0181822165603658 
-28.745639255920146 -143.08453164610822 111.18387947162260 -28.745639255920164 -143.08453164610822 111.18387947162262 -86.584617439018757 8.5296864660966055e-06 -1.9595706054052539e-05 -1.4031058588258678e-05 0.0000000000000000 3.1689416368774198e-10 1.6586201856405583e-10 2.1453393772574716e-07 0.00041881900550750446 3.0861280654236746e-11 1.6112633288743634e-12 1.3570444413150465e-11 0.0000000000000000 -28.647655777685479 -142.96738158566356 112.12452093910819 112.69127588814607 0.0000000000000000 0.0000000000000000 0.0000000000000000 0.0000000000000000 3.0384794068232845 3.0773684731200794 1.0388902500027910 1.0189019865155999 231.67421235180703 231.67519689598859 1.0192593703452351 
-24.348870332840324 -200.65841273112167 72.385629093252561 -24.348870332840328 -200.65841273112167 72.385629093252547 -215.79211853865138 6.2986856354672334e-07 1.8721250609010488e-09 5.1777816048508117e-07 -216.57343444955671 2.8140370589291308e-10 3.2036515107414227e-10 3.0582565235803827e-07 0.00044931463347772029 1.6524124531577491e-12 3.4050987381855451e-14 1.6978909253634200e-13 0.00044917280588692481 -24.261860196399997 -200.43215969199997 73.726546483199982 142.71380061529433 0.0000000000000000 0.0000000000000000 0.0000000000000000 0.0000000000000000 3.0298044997330198 3.0598134612484262 1.0300093628599105 1.0148757004001525 439.14931561702718 439.14930969730369 1.0148937836412160 
-24.244146532296213 -187.84104172353352 73.985470171238205 -24.244146532296213 -187.84104172353355 73.985470171238191 -213.13172452227394 3.2109842940243508e-06 -4.6463424164147010e-06 -1.4342639155646210e-06 -213.96473338679851 2.8055888862121847e-10 2.8596566781224908e-10 3.0206125645193543e-07 0.00044853408415120624 2.9146585884639307e-13 1.6474872136671770e-12 1.1867324020206380e-12 0.00044868489167323685 -24.157397762799999 -187.63907770800003 75.309882232799993 165.73632395326644 0.0000000000000000 0.0000000000000000 0.0000000000000000 0.0000000000000000 3.0298060747065834 3.0598152780088701 1.0300095969464793 1.0148757004001516 434.70658666547035 434.70652489907252 1.0148938311862314 
-34.999133058989436 -195.62804939494592 80.337803157389104 -34.999133058989422 -195.62804939494598 80.337803157389160 -211.89906014671030 1.1277115037176941e-06 -3.6524620566917326e-06 -7.4116745004058117e-06 0.0000000000000000 3.6737374253803523e-10 3.0684635388134041e-10 2.8711430255512482e-07 0.00045003960210030159 1.7147815283486199e-12 1.6070802260626999e-12 1.0536486936201689e-12 0.0000000000000000 -34.885542273181727 -195.41132893576267 81.596679120775832 139.46796289390394 0.0000000000000000 0.0000000000000000 0.0000000000000000 0.0000000000000000 3.0295515872942964 3.0593056741834199 1.0297544891499806 1.0146078688783617 432.05715227653889 432.05714778262330 1.0147681365144874 
-18.896001970054403 -194.74474659478727 80.152163821006923 -18.896001970054396 -194.74474659478719 80.152163821006965 -214.37781979039440 1.5990371649156318e-06 -2.2658713482702416e-06 -3.4429941104157830e-06 0.0000000000000000 2.3739187005045187e-10 3.0448368826263566e-10 2.8755110692557651e-07 0.00044761414394800612 3.3282587525155913e-13 1.3895068580447053e-12 9.2015105698897852e-13 0.0000000000000000 -18.822600960987238 -194.52970000168264 81.412954998504986 111.95285379220412 0.0000000000000000 0.0000000000000000 0.0000000000000000 0.0000000000000000 3.0298578811460710 3.0599199352810156 1.0300624539207954 1.0148757004001518 438.26401145797661 438.26408691702392 1.0149199790191761 
-22.746994289776246 -103.24957183563214 41.579946399677709 -22.746994289776243 -103.24957183563217 41.579946399677709 -215.96532300629445 -5.2480977256406761e-06 5.9762645488617455e-06 -8.0876255357956954e-06 -217.51261146645135 2.6847296608067950e-10 5.8989091389349824e-11 3.7831097143836695e-07 0.00045000355119780212 2.1455617234378147e-12 -5.2170461832488091e-12 7.1105999972925353e-12 0.00045142788677200171 -22.663982073999996 -103.20790935200000 43.238681550399988 69.202643319072678 0.0000000000000000 0.0000000000000000 0.0000000000000000 0.0000000000000000 3.0297462088938194 3.0596959041094958 1.0299500937902062 1.0148757004001530 439.79492301684752 439.79492301851582 1.0148646123637877 
-30.253407212779052 -110.82913275798451 45.369113125668228 -30.253407212779052 -110.82913275798454 45.369113125668214 -211.55061988276148 4.0244411120507878e-07 9.5625809030401896e-06 -1.0922379489611406e-05 -209.87258331647612 3.2906422031686583e-10 7.9331818891859029e-11 3.6939512160216742e-07 0.00044687165203278649 2.4640431653701664e-12 -7.8508416129156468e-12 8.5365212551673508e-12 0.00044667233019579010 -30.151660686400003 -110.77310694400001 46.988755992800002 74.715282964229786 0.0000000000000000 0.0000000000000000 0.0000000000000000 0.0000000000000000 3.0299008396279778 3.0600060849018074 1.0301056447104047 1.0148757004001518 431.41872062333886 431.41872061128203 1.0149413300842429 
-18.808332519928321 -103.60939266707021 48.420254620379289 -18.808332519928317 -103.60939266707021 48.420254620379289 -208.27232761998371 -6.3714819981726948e-06 4.9579438230201338e-06 -1.1680112903572235e-05 -208.54528726699678 2.3668364490525562e-10 5.9955040931924941e-11 3.6221582400131064e-07 0.00044464399115475397 3.3331817817522066e-12 -5.6494181858405118e-12 7.9109679262678875e-12 0.00044476380036178459 -18.735150314000002 -103.56704831999998 50.008419303199993 79.719497061372692 0.0000000000000000 0.0000000000000000 0.0000000000000000 0.0000000000000000 3.0297586304496487 3.0597207146277570 1.0299624823680349 1.0148757004001518 426.06919343287888 426.06919342574480 1.0148706701008521 
-25.581966899006915 -98.520289639312409 49.404224754938397 -25.581966899006929 -98.520289639312466 49.404224754938397 -210.79949015442369 2.2564808465448888e-08 2.4227339371430197e-06 -1.7880389113464020e-05 0.0000000000000000 2.9135580059680422e-10 4.6307457868266517e-11 3.5990056268531134e-07 0.00044727631379120968 1.5777500729100349e-12 -3.7603122744427657e-12 9.1706226001024620e-12 0.0000000000000000 -25.491879232152165 -98.487589184379729 50.982237960580505 72.292163684038698 0.0000000000000000 0.0000000000000000 0.0000000000000000 0.0000000000000000 3.0297280146238803 3.0596602129366053 1.0299326003757858 1.0148757004001525 429.98002740672013 429.98002741260473 1.0148558915666894 
-25.400261456421180 -104.25230582271604 107.77229658113274 -25.400261456421170 -104.25230582271611 107.77229658113268 -87.069373246659950 6.2673029203272907e-06 2.1268355273687162e-05 -5.1330430171561923e-06 0.0000000000000000 6.1940348924963872e-08 -2.1371393570761620e-08 2.7936474256485438e-07 0.00039273974956876136 -2.3398289559907725e-11 -1.2550886396186287e-12 8.1111105197555600e-11 0.0000000000000000 -25.283559732051039 -104.23282252886388 108.75695162467670 96.378087069502698 0.0000000000000000 0.0000000000000000 0.0000000000000000 0.0000000000000000 3.0364397195081998 3.0731478172351676 1.0367075517213593 1.0193417047445557 225.77161310829950 225.77161831340430 1.0181823625105837 
-26.036842994589826 -118.05363547641409 109.69335262060994 -26.036842994589840 -118.05363547641403 109.69335262060989 -71.205435017114240 1.1273794069809703e-05 3.3004856772541366e-06 -8.5494146871072533e-06 0.0000000000000000 4.0965113546196771e-08 -1.8942356725626295e-08 3.0310202604007249e-07 0.00040164657721061662 -2.6240261803880240e-11 3.6088266354662970e-11 6.2169701576791082e-11 0.0000000000000000 -25.913646985361510 -118.01095136745833 110.66456878241424 88.846747377876298 0.0000000000000000 0.0000000000000000 0.0000000000000000 0.0000000000000000 3.0508070417836235 3.1022641202153109 1.0514588278860943 1.0234855104386162 226.31616344135719 226.31615967360895 1.0254130164433510 
-36.425998584332255 -112.70741812395906 111.09265245570137 -36.425998584332241 -112.70741812395907 111.09265245570133 -72.227672584380642 -5.1013395127259419e-06 1.5604543810935083e-05 1.0351112498608544e-05 0.0000000000000000 1.0901707179924451e-07 -6.1006896930762755e-08 3.2701912291892483e-07 0.00038583676204439468 1.3809527128965229e-11 5.0643964092945362e-12 -1.0938990580616039e-11 0.0000000000000000 -36.236867317722961 -112.72601430119678 112.03758904139967 95.996160021407249 0.0000000000000000 0.0000000000000000 0.0000000000000000 0.0000000000000000 3.0525530340144842 3.1058095191776225 1.0532588235949740 1.0250106160135257 231.60101972485629 231.60101896536804 1.0262850070232554 
-33.539146707168300 -105.06624760945404 104.58571351377189 -33.539146707168328 -105.06624760945400 104.58571351377182 -86.631091901385290 8.2458795730214602e-07 2.4627947834102170e-05 -8.6738659284732959e-06 0.0000000000000000 1.3823398002357989e-07 -4.4589452973561202e-08 3.8287993478607238e-07 0.00039845619538878414 -1.9547031747377133e-11 -4.4662390801635938e-12 5.3581619024527328e-11 0.0000000000000000 -33.380789828628046 -105.09637623893835 105.63342596379557 85.433794965156210 0.0000000000000000 0.0000000000000000 0.0000000000000000 0.0000000000000000 3.0451200134610454 3.0906774591497546 1.0455576671883156 1.0215211038716552 237.36219527967452 237.36219115834496 1.0225240865866700 
-112.52650391437010 -160.81422758422065 123.85434896393970 -112.52650391437010 -160.81422758422062 123.85434896393969 -155.08939005255976 7.9099957069348213e-07 -2.5130017390534677e-06 -6.9179079897087628e-06 -154.74342859550191 9.9315584922710087e-10 2.1345056278043725e-10 1.8472051177553794e-07 0.00041749477070614959 -5.2748356319275369e-13 1.3071105255582251e-12 6.2655523813343975e-12 0.00041730822796077821 -112.21942232800005 -160.66347960400000 124.66427103520003 147.55923210393107 0.0000000000000000 0.0000000000000000 0.0000000000000000 0.0000000000000000 3.0324448094196268 3.0651714416512692 1.0327273181269265 1.0148757004001527 338.96792053414646 338.96807481047188 1.0162370590119585 
-99.807956436757408 -158.24055981804418 115.69069587116378 -99.807956436757351 -158.24055981804403 115.69069587116381 -157.96028222571525 -6.5101800176708702e-06 -4.4830310564794250e-06 -1.3669632815772595e-05 0.0000000000000000 8.9048592111229397e-10 2.0652571319779153e-10 2.0392947464031866e-07 0.00042046232152986873 2.5782399100477262e-12 -2.5442159181297798e-12 -3.3778997861279273e-12 0.0000000000000000 -99.532617471171264 -158.09468895943013 116.58484116745363 117.70414803503969 0.0000000000000000 0.0000000000000000 0.0000000000000000 0.0000000000000000 3.0231407130182633 3.0461930399908206 1.0230512879197169 1.0121010235619816 324.41965894665617 324.41950471851493 1.0114558227924604 
-104.62993609001622 -148.98330810299603 120.04251241508868 -104.62993609001617 -148.98330810299603 120.04251241508869 -152.16761239172462 -5.6769775498510307e-06 -4.8588092072257893e-06 -6.4318292223025588e-06 0.0000000000000000 9.2940601048585602e-10 1.8169135640455636e-10 1.9368970338717872e-07 0.00041764910070964312 -1.9909095371265241e-12 2.7675178780604769e-12 -2.8047782314337447e-13 0.0000000000000000 -104.34256255272837 -148.85497981259945 120.89176065121424 119.29379793442074 0.0000000000000000 0.0000000000000000 0.0000000000000000 0.0000000000000000 3.0236862830049436 3.0473895981065713 1.0237031350392061 1.0122858810169018 315.60364166331607 315.60382370238761 1.0117768395279318 
-100.80824515498570 -162.43687763318630 123.75688787063233 -100.80824515498576 -162.43687763318630 123.75688787063237 -153.53328327023530 -3.8397175505687311e-06 -7.0377674899024025e-06 -6.1784911713057997e-06 0.0000000000000000 8.9857012108840451e-10 2.1778770453728669e-10 1.8494983544670163e-07 0.00041717734974354030 -1.7419584711999683e-12 2.0223177383956971e-13 4.4157141410355799e-12 0.0000000000000000 -100.53040969477119 -162.28305471776312 124.56781543385799 141.51484144144280 0.0000000000000000 0.0000000000000000 0.0000000000000000 0.0000000000000000 3.0243968533056074 3.0488729648984791 1.0244760264608141 1.0124984536434603 319.21397855088873 319.21439487029403 1.0121602565145584 
-78.622993658775471 -148.92565702913706 88.271200664962862 -78.622993658775485 -148.92565702913706 88.271200664962862 -160.04388427920716 -1.6293318901787123e-05 -1.1146105719797088e-05 -5.4778615277315633e-06 -159.99114767328595 7.1948859370341022e-10 1.8155291159338560e-10 2.6844713962859146e-07 0.00043067337548023898 5.8912336281328494e-12 8.5953326337684079e-12 3.4137681515335170e-12 0.00043446612931018284 -78.400527573600002 -148.79743798799998 89.448228916799977 108.06316173413846 0.0000000000000000 0.0000000000000000 0.0000000000000000 0.0000000000000000 3.0317833371285894 3.0638038720813721 1.0320211275308913 1.0148757004001536 346.54092707671083 346.53944493346592 1.0158876184135990 
-80.376204993333317 -162.68894490097097 86.578518308168015 -80.376204993333346 -162.68894490097094 86.578518308168000 -185.02827887154913 -9.6196164681029571e-06 -1.7878704165489953e-05 -9.9891784815786296e-06 -185.84332487143698 7.3364177233248284e-10 2.1846632836108881e-10 2.7242999900423115e-07 0.00044109758960125562 -3.9861964184968487e-12 1.2073649275589462e-11 3.4556587926784713e-12 0.00044383205120049346 -80.149363288800018 -162.53464431600008 87.773009718400019 109.57810873427631 0.0000000000000000 0.0000000000000000 0.0000000000000000 0.0000000000000000 3.0321564033157875 3.0645369090907426 1.0323809577572209 1.0148757004001536 391.15637312337634 391.16472564747920 1.0160663233831859 
-84.532693974697722 -160.33427183680510 93.853761442911861 -84.532693974697708 -160.33427183680496 93.853761442911903 -173.78039795578152 -7.2853147155501035e-06 -1.2423393637736694e-05 -1.8583277383962545e-05 0.0000000000000000 7.6718902064509820e-10 2.1214976997363522e-10 2.5531145197987826e-07 0.00043722922432585571 4.6001099065908009e-12 3.3654839375365302e-12 9.5791096219380130e-12 0.0000000000000000 -84.295478612813938 -160.18443337667750 94.973195224810283 106.11323630727971 0.0000000000000000 0.0000000000000000 0.0000000000000000 0.0000000000000000 3.0240265538744215 3.0481941230438889 1.0241677153893318 1.0125662843112504 352.72931922889330 352.73429552587118 1.0120055797710945 
-86.716676772282284 -151.52329069428498 91.490671444693490 -86.716676772282256 -151.52329069428504 91.490671444693533 -169.47502632674289 -8.1006484414386452e-06 -1.6113672846734546e-05 -1.8011170131084961e-05 0.0000000000000000 7.8481536547325703e-10 1.8850584981855431e-10 2.6087177706912712e-07 0.00043418762256275373 4.1317905303580794e-12 4.6288212759785361e-12 4.7325483150009013e-12 0.0000000000000000 -86.474010682800568 -151.39014911596544 92.634484883397832 94.367740677547317 0.0000000000000000 0.0000000000000000 0.0000000000000000 0.0000000000000000 3.0270500374846283 3.0542828003743243 1.0272331650013553 1.0130838723071538 350.38702563624344 350.38666196112985 1.0135249806104196 
-26.110062203412895 -132.52804053487452 137.98043930617314 -26.110062203412895 -132.52804053487449 137.98043930617314 -107.48171921608325 6.4884794389963707e-06 -5.6604997198089874e-06 2.5977016018107897e-05 -111.66689496576980 2.9561890435569893e-10 1.3754045125047298e-10 1.5148202603398883e-07 0.00037024170988789580 5.1215719377558289e-12 -3.4533668496218182e-12 9.3426108130710531e-12 0.00036540351409856812 -26.018656529999991 -132.43089511199997 138.64462455200004 49.421240865332216 0.0000000000000000 0.0000000000000000 0.0000000000000000 0.0000000000000000 3.0294706830408229 3.0591380451406116 1.0296678317486021 1.0160782718099686 249.59836315749544 249.59837625176172 1.0147288021507264 
-32.603057637341820 -134.05685586050373 136.92790608153757 -32.603057637341827 -134.05685586050370 136.92790608153749 -104.29764908139511 -1.0573831994934108e-06 3.4970658302606959e-06 1.6116621686371968e-05 -93.878705595734729 3.4802925819032993e-10 1.4166398609738451e-10 1.5395861341360731e-07 0.00037211554893518616 2.6592577059648273e-12 5.2678277293616503e-12 2.4699663843030426e-11 0.00035862385772747479 -32.495446914399992 -133.95681332000001 137.60295016000006 48.530522504776933 0.0000000000000000 0.0000000000000000 0.0000000000000000 0.0000000000000000 3.0383007292948840 3.0769583890587109 1.0386584975646744 1.0192001085346922 263.15257391029746 263.15250027840733 1.0191384270494981 
-28.515613241676871 -136.54353192011015 139.66320010529637 -28.515613241676871 -136.54353192011015 139.66320010529631 -108.66037815788775 8.3999597496160255e-06 3.9191890951090322e-06 8.1047629688414453e-06 -112.84141273903809 3.1503552544442920e-10 1.4833226313903936e-10 1.4752250931948652e-07 0.00036887676455731245 7.5800052181563828e-12 -1.9986855546922682e-12 5.0035886876702018e-12 0.00036365782250426601 -28.418203856399998 -136.43877710800004 140.31002455199999 44.353383947079159 0.0000000000000000 0.0000000000000000 0.0000000000000000 0.0000000000000000 3.0314931149373190 3.0631949131766540 1.0317021267761164 1.0170691623687695 256.87411632714935 256.87409033179893 1.0157248137657748 
-26.861646950439429 -129.59332123025359 143.23839468395872 -26.861646950439425 -129.59332123025357 143.23839468395866 -113.56769146758148 2.5861341623264636e-06 3.2074381995322867e-06 5.5356469087680153e-06 0.0000000000000000 3.0168821607556845e-10 1.2966627771504591e-10 1.3911014873357885e-07 0.00036649954875034909 -1.1152416393888039e-12 -1.1112443739324866e-12 6.6071292660525359e-12 0.0000000000000000 -26.768365491316434 -129.50173712462359 143.84833436668455 49.139845408488213 0.0000000000000000 0.0000000000000000 0.0000000000000000 0.0000000000000000 3.0320204609769799 3.0643107274117369 1.0322908505753943 1.0170705889269998 267.93660756887488 267.93664524004447 1.0160152680739289 
-40.195321222599901 -65.446095580883423 153.44878043430566 -40.195321222599894 -65.446095580883394 153.44878043430569 -146.00090882939602 -3.0247607713202258e-06 -5.4340254699176011e-08 4.7917954280704185e-06 -146.85317926755368 4.0931204259297966e-10 -4.2443853986995350e-11 1.1508523733994025e-07 0.00039290062017585469 6.3036413871329418e-12 -2.9926396775992671e-12 -2.0807326311979872e-12 0.00039367508690266525 -40.068761925200000 -65.476070995999990 153.95338104800004 156.95717166164070 0.0000000000000000 0.0000000000000000 0.0000000000000000 0.0000000000000000 3.0288491289043624 3.0579006816246226 1.0290520258008828 1.0143763167672957 315.58375502473154 315.66451174879688 1.0144223035443969 
-52.584237137883534 -59.614750406967872 148.71032795527054 -52.584237137883527 -59.614750406967879 148.71032795527051 -147.67598092468256 -2.9568362528784570e-06 -8.4638804149536793e-07 3.9561342167197821e-06 -148.05195588625972 5.0931305006773897e-10 -5.8091781385272150e-11 1.2623475953432717e-07 0.00039769927288450314 3.7326081087974474e-12 1.0458651915352265e-13 -3.2272917275927571e-12 0.00039744948584136331 -52.426757905599978 -59.655776269200025 149.26381449600007 118.05125250056595 0.0000000000000000 0.0000000000000000 0.0000000000000000 0.0000000000000000 3.0305167063326541 3.0612637022771003 1.0307475092231577 1.0144683225846940 322.10843485516983 322.11170311057953 1.0152580361479833 
-35.287227065754557 -66.000846009112337 144.40165258433152 -35.287227065754557 -66.000846009112351 144.40165258433152 -142.88783554781358 -1.0162528203315643e-06 5.6955262452093183e-07 5.2933271925978644e-07 -142.82554038181564 3.6969829975141977e-10 -4.0949937885059740e-11 1.3637301510271979e-07 0.00039124180049591886 3.3064141550847368e-12 -3.6317542894218800e-12 3.6076402678199030e-12 0.00038954136348196558 -35.172917262399999 -66.029770167599992 144.99959110400002 155.12084301790807 0.0000000000000000 0.0000000000000000 0.0000000000000000 0.0000000000000000 3.0302263384892076 3.0606539266596515 1.0304279884504015 1.0148301843345495 313.46276123675676 313.43801772983443 1.0151001274844460 
-50.565268587727942 -66.562267929103783 141.57638419443396 -50.565268587727950 -66.562267929103811 141.57638419443398 -145.00338858136436 -3.0489916442908458e-06 1.4131599418921458e-06 2.5291437176564299e-06 0.0000000000000000 4.9301622506714438e-10 -3.9452219269264788e-11 1.4302080986183796e-07 0.00039624425659292754 5.4741035666492889e-12 -1.5904845307508834e-12 1.9641217859956082e-12 0.0000000000000000 -50.412828244765279 -66.590128188430739 142.20347059834828 136.07757377940416 0.0000000000000000 0.0000000000000000 0.0000000000000000 0.0000000000000000 3.0265130068673756 3.0531303639534859 1.0266172486906167 1.0135684876979341 309.00552061228808 309.01244234882597 1.0132200903271513 
-94.822615521084529 -158.86380306169210 76.326607767496796 -94.822615521084558 -158.86380306169210 76.326607767496824 -209.08095838763086 -3.9889377330187419e-06 -5.1671340680722370e-06 -7.6488848143717347e-06 -209.05257565858940 8.5024841334213619e-10 2.0821991353336955e-10 2.9655259048411153e-07 0.00044272872318374198 -3.0764950002315583e-13 1.9030018368985231e-12 2.6804627206280544e-12 0.00044368591271736851 -94.559718839999974 -158.71675115199997 77.626866652000004 109.98746742214213 0.0000000000000000 0.0000000000000000 0.0000000000000000 0.0000000000000000 3.0296279681064884 3.0594583938527480 1.0298308257611504 1.0148757004001525 427.37380151571386 426.34840852768360 1.0148056317990535 
-89.932832363155171 -158.61298179733106 81.188251799114113 -89.932832363155200 -158.61298179733106 81.188251799114127 -198.05737376916852 -1.4234724629239174e-05 -1.2135843954297753e-05 -1.5831362917823487e-05 -194.25365779712484 8.1078323221905901e-10 2.0754295504410433e-10 2.8511321348290153e-07 0.00044127092575451738 8.4170316305424559e-13 4.8663079266898101e-12 5.6646757732014977e-12 0.00044125367385003633 -89.682139475999989 -158.46640519600001 82.438353807199988 112.88451412247700 0.0000000000000000 0.0000000000000000 0.0000000000000000 0.0000000000000000 3.0299450451270364 3.0600851535153595 1.0301404713928513 1.0148757004001541 407.43329488245604 407.33717592094939 1.0149577084404910 
-102.99315509747393 -155.08392765934985 85.402360358613308 -102.99315509747387 -155.08392765934977 85.402360358613336 -196.79060156779997 -3.2865031752807063e-06 -2.7234940988159454e-06 -1.8075502770277178e-05 0.0000000000000000 9.1619663245001714e-10 1.9807791518111628e-10 2.7519747147763951e-07 0.00043965589555645306 1.0362712459632828e-12 7.3122359695463658e-13 1.9643394865708825e-12 0.0000000000000000 -102.70986659571734 -154.94403864466588 86.608986019839278 111.02505284862640 0.0000000000000000 0.0000000000000000 0.0000000000000000 0.0000000000000000 3.0303405886901387 3.0608952594241328 1.0305550823588154 1.0144785272483519 408.58662636075377 408.15813419832426 1.0151639287965253 
-100.68459152550948 -167.33702200825979 82.432813097165095 -100.68459152550943 -167.33702200825977 82.432813097165123 -204.92473742282561 -2.0190588429352055e-06 -3.4696294797529810e-06 -1.7210054774611417e-05 0.0000000000000000 8.9756381493888426e-10 2.3093563172871259e-10 2.8218478265173985e-07 0.00044238184334947055 -7.1119097264448585e-13 2.4083021797090615e-12 2.6089726001032334e-13 0.0000000000000000 -100.40706467681501 -167.17391327890167 83.670075146830683 105.53983917324770 0.0000000000000000 0.0000000000000000 0.0000000000000000 0.0000000000000000 3.0297330917284069 3.0596705861129725 1.0299378966154722 1.0145574640245403 419.50942769654654 421.09978831356841 1.0148587456808480 
-114.93716028398759 -99.841054743679663 95.469499418069930 -114.93716028398761 -99.841054743679692 95.469499418069958 -174.76855911240079 -2.9981691699995516e-06 -4.0280650236699288e-06 -1.2952913390609189e-05 -176.29528149867244 1.0126050137332698e-09 4.9841686333707009e-11 2.5150964466646997e-07 0.00043566685802153861 2.3724677498761505e-12 5.6783246783046082e-12 7.6274297591575532e-12 0.00043597947946925035 -114.62406224400000 -99.805851428000011 96.572263865600007 85.211636250682801 0.0000000000000000 0.0000000000000000 0.0000000000000000 0.0000000000000000 3.0303999467361540 3.0609659512594525 1.0305658372788893 1.0133524310285669 368.92760204855767 368.93529569625565 1.0151661943426267 
-111.39181176715115 -91.116311829624436 99.156542756683265 -111.39181176715117 -91.116311829624451 99.156542756683251 -168.10784200680300 -1.3875853551679884e-06 -1.8518805359460255e-07 -1.4287287376584036e-05 -167.15669018151428 9.8398468539873107e-10 2.6436741684676693e-11 2.4283409061354178e-07 0.00043146161877571503 4.5331345903118543e-13 -3.2353467408967224e-13 9.5665591088204303e-12 0.00042900101217656649 -111.08756211600000 -91.097641973600034 100.22126851279998 99.535403830130534 0.0000000000000000 0.0000000000000000 0.0000000000000000 0.0000000000000000 3.0329949243102230 3.0662580168139519 1.0332638212114846 1.0143355887472865 362.47826907934262 362.46592030953582 1.0164995284359111 
-113.21314333522028 -97.686926112187493 107.40720645834598 -113.21314333522031 -97.686926112187464 107.40720645834602 -159.06539966862235 -1.2383072039420235e-06 -6.8559874268669103e-07 -1.2136987455762396e-05 -158.86397686987036 9.9869436331889716e-10 4.4066972293421713e-11 2.2342039551759285e-07 0.00042644994911136130 1.4525704774548303e-12 2.3494358351977146e-12 1.0372700873592581e-11 0.00042653499888836125 -112.90434805199999 -97.655804887999992 108.38681131359999 128.09762094244454 0.0000000000000000 0.0000000000000000 0.0000000000000000 0.0000000000000000 3.0304463776666513 3.0611381142903462 1.0306922719806837 1.0142902083982677 342.43148938291046 342.41783157867695 1.0152304246112160 
-107.44907577264196 -103.88406616284021 99.488867803110821 -107.44907577264199 -103.88406616284014 99.488867803110807 -166.46584472362409 -1.3879776491217633e-05 -1.2519695957369764e-06 -1.5258026976785374e-05 0.0000000000000000 9.5216541595721793e-10 6.0695115600140070e-11 2.4205212723060754e-07 0.00043307297418321175 7.8259265549284111e-12 2.8570565591657642e-12 6.3213026644853171e-13 0.0000000000000000 -107.15466629968294 -103.84120130723400 100.55016500991876 102.24201981555134 0.0000000000000000 0.0000000000000000 0.0000000000000000 0.0000000000000000 3.0243438606458155 3.0486691611245491 1.0243247161331501 1.0120360127290231 340.83040055574440 340.82566134299128 1.0120854453210233 
-27.004111048768756 -115.40955265037820 102.29661931581151 -27.004111048768770 -115.40955265037825 102.29661931581147 -79.643103881871397 1.3110801192323192e-05 8.4022328943722412e-06 -2.0145609956406771e-05 0.0000000000000000 4.7967915133492021e-08 -3.2234343824688049e-08 3.3121362004423710e-07 0.00042524127556304707 7.3405462269256410e-12 2.9672748041196285e-11 6.1550132327174019e-11 0.0000000000000000 -26.889884864405381 -115.37486796036181 103.37575244326078 96.382960025775517 0.0000000000000000 0.0000000000000000 0.0000000000000000 0.0000000000000000 3.0434189647678429 3.0873117583722229 1.0438936976887760 1.0217826819304168 226.08497463963997 226.08497477662260 1.0217101003791207 
-109.86878268268048 -103.66422161237298 151.67454475814208 -109.86878268268043 -103.66422161237300 151.67454475814205 -150.52224002762904 3.9220197405115930e-07 1.2447931877280315e-06 2.1021358675202673e-07 -151.01696900887492 9.7170090029852219e-10 6.0101978949234081e-11 1.1925998633088852e-07 0.00041237585084681144 -6.5882378356617223e-13 -2.2020244175482369e-12 -1.6621298703156100e-13 0.00041215785087796072 -109.56833416800004 -103.62177336400003 152.19744990400002 70.302883591683823 0.0000000000000000 0.0000000000000000 0.0000000000000000 0.0000000000000000 3.0284270659279335 3.0570127763896910 1.0285859250551748 1.0141989758864702 322.77516886926185 322.77516716295133 1.0141928340412858 