# For a description of the Tecplot format see the Tecplot User's guide.
#
Variables=x,y,z,s_u,s_v,s_w,s_p,mono_f_vel_u,mono_f_vel_v,mono_f_vel_w,const,u_nu,v_nu,w_nu,p_nu,x_nu,y_nu,z_nu,const,u_ref,v_ref,w_ref,vol_ref,x_ref,y_ref,z_ref,const,I1,I2,I3,J,p1,p2,p3
Zone f=fepoint, n=3174, e=16683, et=brick, c=black
-25.9237 -155.744 100.445 -25.923748708827915 -155.74421357738444 100.44500513265558 -55.276250899169739 -2.8608347091446026e-05 -5.1076146703419835e-05 -7.5779483848967830e-05 -10.987659574768371 7.6008310756492392e-10 2.9780378163479787e-10 1.0560408444604265e-05 0.0028915773813780687 5.5189739865534587e-10 3.9512718869801556e-09 -4.8091063666790195e-09 0.0033552287495631616 -24.903554063199991 -154.16086777200002 112.24023381839994 89.724962256112903 0.0000000000000000 0.0000000000000000 0.0000000000000000 0.0000000000000000 3.3857554647322057 3.8020264594706683 1.4168597575123085 1.1912555903194395 1404.3354939921128 1404.3361514324542 1.1902457953196703 
-38.828029313436666 -156.93875406989724 103.40482025999418 -38.828029313436666 -156.93875406989721 103.40482025999424 -27.983119588959251 2.9130569340306824e-05 2.5570549151347382e-05 -2.7267923242403370e-05 0.0000000000000000 -1.5222371073921543e-06 -1.8925526010246126e-07 9.7213056597578606e-06 0.0025024131525719054 -1.7483229912158884e-09 1.1264356273874456e-09 -6.0717428870228138e-09 0.0000000000000000 -37.438273663334591 -155.10473791080037 114.93291110338620 89.036758072416930 0.0000000000000000 0.0000000000000000 0.0000000000000000 0.0000000000000000 3.4193488790509852 3.8820739577524077 1.4639755550140474 1.2048551700553367 1485.0700445779178 1485.0706438323373 1.2099901997913673 
-32.754050376681704 -149.32597578159744 109.06361471597621 -32.754050376681683 -149.32597578159755 109.06361471597621 -15.919096057180990 -1.5589369477450014e-06 2.4104004244773676e-05 -4.5799403405310329e-05 0.0000000000000000 9.0256135898414403e-10 2.7212121445074905e-10 9.6673421516868530e-06 0.0020507251852214473 5.1457955049272539e-10 2.7307016454778270e-09 1.4853052169424463e-09 0.0000000000000000 -31.542619574254449 -147.87907313389167 119.86135157363466 98.260374494724786 0.0000000000000000 0.0000000000000000 0.0000000000000000 0.0000000000000000 3.3936705830301421 3.8217100450814843 1.4288352369290889 1.1960209513509483 1398.7936516601592 1398.7920891146862 1.1953065144386887 
-29.775698074666078 -144.30760027711298 100.31414714536204 -29.775698074666057 -144.30760027711304 100.31414714536201 -19.131567969057016 -2.0940427094844984e-05 -2.1015531236736836e-05 2.9582355800622172e-05 0.0000000000000000 8.4043416670454018e-10 2.5206392528787097e-10 1.0573968044269579e-05 0.0016828249394064858 -6.2244279387519155e-10 4.3452319012648140e-10 1.2552259380192061e-09 0.0000000000000000 -28.647655777685479 -142.96738158566356 112.12452093910819 112.69127588814607 0.0000000000000000 0.0000000000000000 0.0000000000000000 0.0000000000000000 3.3999249137767724 3.8358119172440008 1.4367975690601020 1.1970057263437131 1414.9902521966746 1414.9885253105263 1.1986685674337321 
-25.263571055608843 -203.02053694829081 56.890444579096723 -25.263571055608846 -203.02053694829081 56.890444579096716 -910.23783707050666 2.2209374580097250e-05 3.4916446433383113e-06 1.0216444045205989e-05 -919.75795298227001 7.4631234525668343e-10 4.8681303432829282e-10 1.5073562149581224e-05 0.00044916600282384606 -1.0270367255577892e-10 -3.4220837544669977e-11 -3.2091344669882276e-11 0.00045503532920084411 -24.261860196399997 -200.43215969199997 73.726546483199982 142.71380061529433 0.0000000000000000 0.0000000000000000 0.0000000000000000 0.0000000000000000 3.3816677107741500 3.7945486481708772 1.4135998597112780 1.1887308568461852 2917.8136227501786 2917.8135019074002 1.1889499594988726 
-25.156099615048703 -189.94958397313343 58.681015608621088 -25.156099615048703 -189.94958397313346 58.681015608621088 -885.80385298638407 4.5989513233372105e-05 -5.0096220819307910e-05 -1.5333999403031608e-05 -898.78710645591946 7.4407113803687263e-10 4.3456416243259355e-10 1.4888021940606674e-05 0.00047882376137040137 -7.2185032619405379e-11 -2.0281891451890216e-11 -7.0608500097712937e-12 0.00051671432289997297 -24.157397762799999 -187.63907770800003 75.309882232799993 165.73632395326644 0.0000000000000000 0.0000000000000000 0.0000000000000000 0.0000000000000000 3.3815697475818345 3.7942000696701124 1.4133410264710644 1.1887308568461847 2876.5489406064148 2876.5497182062932 1.1888369060676105 
-36.193264893840869 -197.89065168740677 65.790661417450494 -36.193264893840862 -197.89065168740674 65.790661417450508 -861.33523159916274 3.1837345120305964e-05 -3.5532377133902827e-05 -7.2383244785134479e-05 0.0000000000000000 9.7430419288002668e-10 4.6631210004477452e-10 1.4151315522070718e-05 0.00038155838283292464 -1.7990233127055338e-10 -3.8813777570782639e-11 -2.4005917274909362e-11 0.0000000000000000 -34.885542273181727 -195.41132893576267 81.596679120775832 139.46796289390394 0.0000000000000000 0.0000000000000000 0.0000000000000000 0.0000000000000000 3.3789532893951586 3.7887875075633692 1.4105496548605607 1.1865193995893784 2825.3253286838440 2825.3227375002216 1.1876638093165990 
-19.667635699093843 -196.98987341104547 65.582890519303163 -19.667635699093847 -196.98987341104558 65.582890519303177 -903.59203068070417 2.4286954994065145e-05 -2.2162923696970521e-05 -3.5439620260960253e-05 0.0000000000000000 6.2958471769292135e-10 4.6271142473131017e-10 1.4172844881699122e-05 0.00049616894049794467 -5.4253721026121339e-11 5.0738986647824010e-12 -9.6278069064898254e-12 0.0000000000000000 -18.822600960987238 -194.52970000168264 81.412954998504986 111.95285379220412 0.0000000000000000 0.0000000000000000 0.0000000000000000 0.0000000000000000 3.3820019414274425 3.7951603158878693 1.4138747253608013 1.1887308568461854 2919.2044919097589 2919.2045331703166 1.1890669723594700 
-23.619666565393565 -103.68453598867480 22.412168120983434 -23.619666565393569 -103.68453598867481 22.412168120983434 -666.25219728041805 -3.1796585178567073e-05 3.7184171059991281e-05 -5.1408525315335353e-05 -680.52477583520988 7.1202077567278355e-10 8.9648066747827215e-11 1.8646225019125495e-05 -0.0049610504082212327 -1.8182331541465934e-10 3.4655919958422117e-10 -3.9915604839449664e-10 -0.0049892708910938130 -22.663982073999996 -103.20790935200000 43.238681550399988 69.202643319072678 0.0000000000000000 0.0000000000000000 0.0000000000000000 0.0000000000000000 3.3811118027130354 3.7933224206603162 1.4129259625267141 1.1887308568461856 2494.5102528568582 2494.4986672629570 1.1886667422075963 
-31.323025363325659 -111.41405277723899 26.653071957593870 -31.323025363325659 -111.41405277723901 26.653071957593870 -638.47416825740891 6.6779073440973609e-06 5.5496027924972703e-05 -7.5072521659378714e-05 -634.91159975275696 8.7271034843183770e-10 1.2054468534472562e-10 1.8206779625273839e-05 -0.0047806397548463752 -2.2142887116105122e-10 5.9100020144732824e-10 -3.9292992493292468e-10 -0.0046256802631740113 -30.151660686400003 -110.77310694400001 46.988755992800002 74.715282964229786 0.0000000000000000 0.0000000000000000 0.0000000000000000 0.0000000000000000 3.3817859336689788 3.7946818091144698 1.4136097102521956 1.1887308568461858 2439.5673581568517 2439.5828725296710 1.1889556433407094 
-19.577666064214171 -104.05147560245555 30.067964625738178 -19.577666064214167 -104.05147560245557 30.067964625738174 -617.65290402101857 -4.0628144280169753e-05 2.8292941905661556e-05 -8.0826280516080282e-05 -621.76662311350242 6.2770666442446544e-10 9.1109564337443771e-11 1.7852926085026866e-05 -0.0045851443368876794 -3.1774522970572767e-10 4.0300674514007235e-10 -5.3989963704119234e-10 -0.0046075066218706487 -18.735150314000002 -103.56704831999998 50.008419303199993 79.719497061372692 0.0000000000000000 0.0000000000000000 0.0000000000000000 0.0000000000000000 3.3811460644887297 3.7933755545968944 1.4129439032194091 1.1887308568461865 2406.8957122875213 2406.8789732020750 1.1886732982292167 
-26.529020395941611 -98.861688529726493 31.169241772013912 -26.529020395941608 -98.861688529726493 31.169241772013923 -626.75746288038022 8.1822010901572200e-06 8.1481985286808509e-06 -0.00012726219326554547 0.0000000000000000 7.7270889686786859e-10 7.0354166936681395e-11 1.7738810985434839e-05 -0.0048830190556818937 -3.5092880543357887e-10 3.0271192381535838e-10 -5.1825434759752276e-10 0.0000000000000000 -25.491879232152165 -98.487589184379729 50.982237960580505 72.292163684038698 0.0000000000000000 0.0000000000000000 0.0000000000000000 0.0000000000000000 3.3812878779044451 3.7937730512063057 1.4132055381154975 1.1887308568461861 2421.3023013342518 2421.3449113658298 1.1887817840460118 
-26.363252046024073 -104.71585751975367 96.483364404199023 -26.363252046024062 -104.71585751975364 96.483364404199037 -13.159136909224863 3.9922017906315668e-06 4.0572799664492823e-05 2.0594192513411655e-05 0.0000000000000000 -5.3078710289426687e-07 1.1653189421167739e-06 9.5082864894668436e-06 0.00022227286503210457 1.4760117197578164e-09 1.3626524172596671e-09 -3.9548226950098405e-09 0.0000000000000000 -25.283559732051039 -104.23282252886388 108.75695162467670 96.378087069502698 0.0000000000000000 0.0000000000000000 0.0000000000000000 0.0000000000000000 3.3951713444001212 3.8247198625418117 1.4303570484587518 1.1976734732945320 1382.6623474923299 1382.9286107178334 1.1959584005256405 
-27.012088164902078 -118.80113041988388 98.605799133624416 -27.012088164902057 -118.80113041988395 98.605799133624373 -0.91291357573571685 -1.2479912220823063e-05 -8.5686585502474577e-06 8.0436280277044151e-06 0.0000000000000000 -5.5070635056653463e-07 1.5785066144171894e-06 8.9703862992547224e-06 0.00021952371378716970 -1.4282391638401471e-09 -1.1991654977500440e-09 -1.3945909673156362e-09 0.0000000000000000 -25.913646985361510 -118.01095136745833 110.66456878241424 88.846747377876298 0.0000000000000000 0.0000000000000000 0.0000000000000000 0.0000000000000000 3.4157573657571016 3.8692557088264614 1.4544440568300723 1.2025437377339785 1438.2022009391660 1438.3302478553162 1.2060187695971056 
-37.686293512704388 -113.33584502989982 100.14948274712542 -37.686293512704403 -113.33584502989974 100.14948274712546 -5.3114381103372263 -2.1435244248536541e-05 -2.3639906810307537e-05 -1.0686656390507476e-05 0.0000000000000000 -1.4673533166612432e-06 4.4456779010458921e-06 7.1147929262828624e-06 0.00052666643396899221 -7.8979181291755672e-10 -2.1044359067388975e-09 -1.3830273276791347e-09 0.0000000000000000 -36.236867317722961 -112.72601430119678 112.03758904139967 95.996160021407249 0.0000000000000000 0.0000000000000000 0.0000000000000000 0.0000000000000000 3.4114819632058055 3.8604834981172873 1.4499686594991059 1.2035960220618727 1441.7105477435493 1441.6572276174945 1.2041448813447173 
-34.709486849948640 -105.52660106260352 92.864080355577059 -34.709486849948661 -105.52660106260359 92.864080355577073 -7.5434495634585232 -1.5073323593066511e-05 3.1848290533632882e-05 2.0780019818900282e-05 0.0000000000000000 -1.4207179535918766e-06 4.2988046111770868e-06 7.1711683820126131e-06 0.00022647530572049427 7.3015420109901305e-10 7.8125551675261568e-11 -1.6429702204570113e-10 0.0000000000000000 -33.380789828628046 -105.09637623893835 105.63342596379557 85.433794965156210 0.0000000000000000 0.0000000000000000 0.0000000000000000 0.0000000000000000 3.4163772566435564 3.8703049560846834 1.4548624439409534 1.2031531801107638 1421.7234880586670 1421.6466452961126 1.2061765148247476 
-115.75472260811129 -162.38806480714095 114.49516544499265 -115.75472260811127 -162.38806480714092 114.49516544499262 -194.59677498824863 8.1343742122814983e-06 -2.3003855765765800e-05 -3.5539075772911173e-05 -192.91792705954887 2.6339295189359287e-09 3.2435321095647396e-10 9.1045211014773031e-06 -0.00069610440930523837 -6.1833341062709730e-11 1.6549024133254707e-10 -4.2677746237187543e-10 -0.00062668225403506213 -112.21942232800005 -160.66347960400000 124.66427103520003 147.55923210393107 0.0000000000000000 0.0000000000000000 0.0000000000000000 0.0000000000000000 3.3866511381626059 3.8067542528061007 1.4209365526250173 1.1887308568461858 1689.1965182796559 1689.2336964815224 1.1920561796435225 
-102.70247839858393 -159.76347897550238 105.35825745822157 -102.70247839858393 -159.76347897550244 105.35825745822152 -215.33921963469930 -3.4495851156849071e-05 -3.4521921324826147e-05 -7.4223206220413532e-05 0.0000000000000000 2.3616628652689538e-09 3.1386382381981548e-10 1.0051293838131414e-05 -0.00083006413612182436 -3.3081934040846945e-10 5.8049482155102217e-10 -7.8435469935258324e-10 0.0000000000000000 -99.532617471171264 -158.09468895943013 116.58484116745363 117.70414803503969 0.0000000000000000 0.0000000000000000 0.0000000000000000 0.0000000000000000 3.3702471101443754 3.7635732815276373 1.3935704105458513 1.1823638556402913 1665.2855094854463 1665.3259024212362 1.1804701740341204 
-107.65097240849265 -150.32307955389288 110.22888913319265 -107.65097240849265 -150.32307955389294 110.22888913319272 -168.35927658422327 -2.3778605347119486e-05 -5.2825121610197230e-05 -1.3143075278344267e-05 0.0000000000000000 2.4648918461878111e-09 2.7611579689335026e-10 9.5465956135853941e-06 -0.00096805471029452978 -1.4461718094169655e-11 3.0013110195800818e-10 -7.0741195879071869e-10 0.0000000000000000 -104.34256255272837 -148.85497981259945 120.89176065121424 119.29379793442074 0.0000000000000000 0.0000000000000000 0.0000000000000000 0.0000000000000000 3.3695455298442600 3.7646872348097000 1.3955908693962049 1.1838709526418700 1584.8962356123373 1584.6967998297282 1.1813241746339864 
-103.72901170777919 -164.04281775707196 114.38608522909917 -103.72901170777915 -164.04281775707202 114.38608522909911 -194.18317123615799 -1.4036663949262490e-05 -5.4239323530806936e-05 -3.8577036331847307e-05 0.0000000000000000 2.3830759587895045e-09 3.3097902196743689e-10 9.1158240671518342e-06 -0.00048882336933973988 -1.8418017211012646e-10 1.5649608958506398e-10 -2.8276650457818823e-10 0.0000000000000000 -100.53040969477119 -162.28305471776312 124.56781543385799 141.51484144144280 0.0000000000000000 0.0000000000000000 0.0000000000000000 0.0000000000000000 3.3705562494722554 3.7689951115856855 1.3989992221460499 1.1834395093318255 1634.8454404869606 1634.8361218552229 1.1827775739629263 
-80.961685416155277 -150.26428789724724 74.669863194572130 -80.961685416155291 -150.26428789724721 74.669863194572130 -281.14799438696195 -9.6033684303025181e-05 -6.5146378101862512e-05 -3.5483861647549588e-05 -287.29602180163749 1.9081665136866377e-09 2.7588131779054947e-10 1.3231246487777071e-05 -0.00099293579048492981 -2.4596276217981089e-10 2.6409694696558207e-10 -1.3073623382863598e-10 -0.00083575687602385491 -78.400527573600002 -148.79743798799998 89.448228916799977 108.06316173413846 0.0000000000000000 0.0000000000000000 0.0000000000000000 0.0000000000000000 3.3930496026510117 3.8182346472985080 1.4259442766376007 1.1887308568461852 1868.4059068082690 1868.4380288129421 1.1942055568255407 
-82.760895784307777 -164.29987198463854 72.775382528980003 -82.760895784307792 -164.29987198463854 72.775382528979989 -441.91708099299456 -4.7376901611177985e-05 -0.00013829047439844770 -6.6045398358900834e-05 -445.98853836793137 1.9456964928110665e-09 3.3199065718747534e-10 1.3427553891887102e-05 -0.00097560556545450206 3.6069703855340427e-10 1.4790106710644129e-10 1.8559866829796252e-10 -0.0011698918735618508 -80.149363288800018 -162.53464431600008 87.773009718400019 109.57810873427631 0.0000000000000000 0.0000000000000000 0.0000000000000000 0.0000000000000000 3.3947503774865235 3.8215013436035843 1.4274803475043829 1.1887308568461861 2143.4683380494243 2143.4821282218409 1.1948743537869684 
-87.026438633007430 -161.89861349915347 80.917966044975458 -87.026438633007416 -161.89861349915341 80.917966044975415 -355.88665149110949 -2.3257167554438478e-05 -8.2727065507534573e-05 -0.00013625732454403992 0.0000000000000000 2.0346679896476871e-09 3.2240543568207153e-10 1.2583813745692396e-05 -0.0010229905193137828 -4.0565189191179181e-10 -3.6433840051962283e-10 -2.9966106830954489e-10 0.0000000000000000 -84.295478612813938 -160.18443337667750 94.973195224810283 106.11323630727971 0.0000000000000000 0.0000000000000000 0.0000000000000000 0.0000000000000000 3.3508428724976413 3.7318605283506128 1.3817554065290976 1.1778623310225258 1850.1119285412699 1850.0961863461941 1.1753365242731024 
-89.267722621895061 -152.91331377499807 78.273153038738499 -89.267722621895032 -152.91331377499816 78.273153038738471 -326.45268772593937 -3.5133405044817609e-05 -0.00011148915153861429 -0.00012277116658864127 0.0000000000000000 2.0814265866420101e-09 2.8647240135626362e-10 1.2857871094951180e-05 -0.0013535130366392435 -9.0675813416744390e-10 4.3252174482318181e-10 -2.2638131895112600e-11 0.0000000000000000 -86.474010682800568 -151.39014911596544 92.634484883397832 94.367740677547317 0.0000000000000000 0.0000000000000000 0.0000000000000000 0.0000000000000000 3.3650282988698597 3.7608689123343013 1.3965825149913362 1.1805236375620012 1841.1634631686250 1841.0564839146707 1.1817678598118808 
-27.070971345226063 -133.54225699291581 130.30534089010271 -27.070971345226059 -133.54225699291581 130.30534089010274 -70.510547628581591 1.7542780506073481e-05 -2.2384374701892968e-05 0.00010692629251534415 -83.790737924078854 7.8401507508374369e-10 2.0902590769367177e-10 7.4662597775443373e-06 0.00029615179961684732 2.5336999179551270e-10 -7.4795305462375028e-11 5.1341598562582466e-10 0.00013968742396478179 -26.018656529999991 -132.43089511199997 138.64462455200004 49.421240865332216 0.0000000000000000 0.0000000000000000 0.0000000000000000 0.0000000000000000 3.3803127143935563 3.7912054758676992 1.4115908904641652 1.1899927290077543 1452.1555480436996 1452.1586501338354 1.1881088501684860 
-33.734323603348379 -135.10131877065237 129.12732669508202 -33.734323603348372 -135.10131877065231 129.12732669508202 -58.791932006024609 -4.7155871794795439e-06 1.4041751855919674e-05 2.5980885581156037e-05 27.693563528377819 9.2300755927254851e-10 2.1524626525604160e-10 7.5883264223364213e-06 0.00047310877054373637 9.3833482072829887e-11 2.1917127439370789e-10 1.0993889776059578e-09 -0.00030056885012220438 -32.495446914399992 -133.95681332000001 137.60295016000006 48.530522504776933 0.0000000000000000 0.0000000000000000 0.0000000000000000 0.0000000000000000 3.3947830889004376 3.8244128086522031 1.4304852354232833 1.1952784598689201 1479.3641031663894 1479.3647569818286 1.1960262430715363 
-29.539636864238375 -137.63719183076140 132.18871716915356 -29.539636864238386 -137.63719183076140 132.18871716915353 -68.163102780229224 1.9975500746019795e-05 3.6793735018188056e-05 2.7588520602286792e-05 -78.803879732437437 8.3551021656802515e-10 2.2540613819899136e-10 7.2711030369987384e-06 0.00023573506764630139 3.2879357592894338e-10 -1.3382869828222604e-10 2.7455044732889596e-10 8.8207796520377939e-05 -28.418203856399998 -136.43877710800004 140.31002455199999 44.353383947079159 0.0000000000000000 0.0000000000000000 0.0000000000000000 0.0000000000000000 3.3812140249044926 3.7929834093408621 1.4124555541451007 1.1909603035606680 1450.6849896510316 1450.6851116757753 1.1884739200219518 
-27.842275433182142 -130.54947649188506 136.19013951388146 -27.842275433182145 -130.54947649188503 136.19013951388149 -89.837128083095749 1.8166915912643365e-05 2.3370602051847380e-05 8.3350909893017177e-06 0.0000000000000000 8.0010531533503116e-10 1.9705681530979291e-10 6.8564728756825852e-06 0.00013635884670543740 2.9968875485412755e-11 -2.8428240743148673e-11 2.1069732105156122e-10 0.0000000000000000 -26.768365491316434 -129.50173712462359 143.84833436668455 49.139845408488213 0.0000000000000000 0.0000000000000000 0.0000000000000000 0.0000000000000000 3.3820747494716796 3.7962248159300787 1.4149111611117915 1.1905786790705311 1508.3258162352033 1508.3260614381654 1.1894982172337065 
-41.525785528723119 -65.133146617893118 147.61778765744518 -41.525785528723119 -65.133146617893104 147.61778765744518 -154.08642927150547 2.5359683478774643e-06 -1.2188853158334830e-05 3.8240354992161460e-05 -157.95741862015942 1.0855392140740605e-09 -6.4490190965216230e-11 5.6723320795981627e-06 -0.00054889632333090751 -1.4715503657797489e-10 6.2516122865389007e-11 1.6568701669798542e-12 -0.00055856429490911557 -40.068761925200000 -65.476070995999990 153.95338104800004 156.95717166164070 0.0000000000000000 0.0000000000000000 0.0000000000000000 0.0000000000000000 3.3801105290322799 3.7914908524461528 1.4121122301252373 1.1876550861610304 1597.9239989790071 1597.9239003561599 1.1883256373192201 
-54.239749627391916 -59.186432700894336 142.31442606079145 -54.239749627391916 -59.186432700894336 142.31442606079145 -152.57893990008560 -2.1365674812012343e-05 1.9364259467228724e-07 1.4867169143090674e-05 -155.62844261021206 1.3507477358842834e-09 -8.8271168152687096e-11 6.2218700591643028e-06 -0.00064866711549815728 -2.0683980641202206e-11 4.6311523720400479e-12 -1.4160111279815272e-11 -0.00061951290006577724 -52.426757905599978 -59.655776269200025 149.26381449600007 118.05125250056595 0.0000000000000000 0.0000000000000000 0.0000000000000000 0.0000000000000000 3.3821826883285788 3.7960324017619853 1.4145939775811163 1.1876514214294416 1601.9022624767099 1601.9022933195397 1.1893694714503853 
-36.488917627631302 -65.698872362746386 137.49207876580732 -36.488917627631295 -65.698872362746414 137.49207876580729 -138.45461150064619 7.9752712756846828e-06 -6.9286882395779717e-06 -3.4041459959995385e-06 -137.21696326376261 9.8047103769260978e-10 -6.2237326403646862e-11 6.7215650290108905e-06 -0.00053916817526647573 -9.9832380925023022e-11 1.0099688003098498e-10 -1.0628234620962091e-10 -0.00051664120851469865 -35.172917262399999 -66.029770167599992 144.99959110400002 155.12084301790807 0.0000000000000000 0.0000000000000000 0.0000000000000000 0.0000000000000000 3.3814467611805861 3.7938468402601520 1.4131087405494918 1.1884101596172754 1574.3174324050740 1574.3173656742763 1.1887424967844848 
-52.167809367360540 -66.271401589768544 134.32998735610860 -52.167809367360547 -66.271401589768558 134.32998735610860 -140.95557165768744 -1.5065159850994889e-05 1.5836587898507036e-05 6.0768477774507706e-06 0.0000000000000000 1.3075256433126013e-09 -5.9951155151338753e-11 7.0492231323271434e-06 -0.00065002297760401834 -7.8058990911446611e-11 5.6688073353792342e-12 -6.6731524525396328e-11 0.0000000000000000 -50.412828244765279 -66.590128188430739 142.20347059834828 136.07757377940416 0.0000000000000000 0.0000000000000000 0.0000000000000000 0.0000000000000000 3.3739817002843910 3.7764373298247640 1.4030357443704675 1.1858291171103663 1552.2196539181048 1552.2196594508996 1.1844947179730845 
-97.586337014227908 -160.39905261419815 61.301259090098029 -97.586337014227880 -160.39905261419815 61.301259090098029 -589.41180375712111 -3.9924256952725406e-05 -3.0320938560931852e-05 -7.0065426060330802e-05 -589.54580941833672 2.2549508926772432e-09 3.1640978725988589e-10 1.4616510494391831e-05 -0.0015246657367030865 -5.3325151290975277e-10 6.0826703515914917e-10 -2.2944273566439172e-10 -0.0013856686286315453 -94.559718839999974 -158.71675115199997 77.626866652000004 109.98746742214213 0.0000000000000000 0.0000000000000000 0.0000000000000000 0.0000000000000000 3.3807064906301325 3.7924995084279423 1.4125106410507597 1.1887308568461858 2356.8436578435144 2356.8381148224476 1.1884881463893751 
-92.568260538021079 -160.14326904128825 66.742498897388487 -92.568260538021079 -160.14326904128831 66.742498897388487 -510.90994748586985 -9.2991604871806740e-05 -8.0662759574289244e-05 -0.00011222458139210650 -488.30927530052691 2.1502755132019047e-09 3.1537195077646634e-10 1.4052685465060222e-05 -0.0013107671782864423 -4.9567372568291437e-10 6.9567125848908209e-10 -8.8272696201421725e-11 -0.0012036860679369688 -89.682139475999989 -158.46640519600001 82.438353807199988 112.88451412247700 0.0000000000000000 0.0000000000000000 0.0000000000000000 0.0000000000000000 3.3834807273204963 3.7976530210436845 1.4148621817751548 1.1887308568461856 2218.3396122498461 2218.2989060817135 1.1894724910840853 
-105.97124716708603 -156.54439524282927 71.459005309019446 -105.97124716708598 -156.54439524282921 71.459005309019432 -497.24910426320116 -2.0252304919588716e-05 -2.6750946651462826e-06 -0.00014311669880602652 0.0000000000000000 2.4298527634414313e-09 3.0098079584206516e-10 1.3563957804052508e-05 -0.0018867531321977058 -4.2522627795528460e-10 6.2157795014003134e-10 -2.6921953606357691e-10 0.0000000000000000 -102.70986659571734 -154.94403864466588 86.608986019839278 111.02505284862640 0.0000000000000000 0.0000000000000000 0.0000000000000000 0.0000000000000000 3.3826735261708509 3.7968067594702721 1.4148560327145312 1.1865525373433039 2209.9962469349684 2210.5227674280545 1.1894960124976739 
-103.60211377606498 -169.03990777343719 68.135434380432343 -103.60211377606494 -169.03990777343725 68.135434380432343 -546.65797013585427 -8.4309789478590017e-06 -1.6775670679512487e-05 -0.00013919001361924294 0.0000000000000000 2.3804331839016872e-09 3.5095060191281391e-10 1.3908348524438452e-05 -0.0012788163333193909 -3.6077406697366251e-10 3.3073725391977296e-10 -5.8352374939950027e-11 0.0000000000000000 -100.40706467681501 -167.17391327890167 83.670075146830683 105.53983917324770 0.0000000000000000 0.0000000000000000 0.0000000000000000 0.0000000000000000 3.3805970839672161 3.7922463179156938 1.4123614287754951 1.1870130348809769 2271.9202893403567 2271.8620878705847 1.1884294648986351 
-118.22862740713684 -100.20858397031199 82.726329168932168 -118.22862740713684 -100.20858397031201 82.726329168932153 -329.78514221391458 -1.9881600134364971e-05 -2.9520081615294274e-05 -8.6547952211031429e-05 -340.33590355170952 2.6855340202502474e-09 7.5747630390310418e-11 1.2396429905692232e-05 -0.0041578815297552427 -9.3562708284286891e-11 -7.4559392481068040e-11 -4.5949913475808176e-10 -0.0041425778918367873 -114.62406224400000 -99.805851428000011 96.572263865600007 85.211636250682801 0.0000000000000000 0.0000000000000000 0.0000000000000000 0.0000000000000000 3.3832462259432465 3.7983074876638132 1.4157186289601840 1.1822141090251570 1910.1215042795277 1910.1063191238729 1.1898064286937244 
-114.59025952502702 -91.311228632587984 86.852934665919562 -114.59025952502702 -91.311228632587955 86.852934665919534 -285.50785985326860 -6.0407751434649491e-06 2.6098421898615634e-06 -9.2318082400792657e-05 -282.58693077442251 2.6096476091197469e-09 4.0171421744616971e-11 1.1968828186326162e-05 -0.0040426027065609644 7.0415177194732005e-11 3.1935607802264448e-10 -7.2019665052676508e-10 -0.0038503148574797054 -111.08756211600000 -91.097641973600034 100.22126851279998 99.535403830130534 0.0000000000000000 0.0000000000000000 0.0000000000000000 0.0000000000000000 3.3929991785371389 3.8182695921993921 1.4260327232082530 1.1862296911464252 1864.9529818020644 1864.9521824529509 1.1941815793010806 
-116.45937739833796 -98.011837537053168 96.087226497672390 -116.45937739833794 -98.011837537053196 96.087226497672404 -211.95286480023591 -1.2664718082595919e-05 -1.1955151874326718e-05 -0.00011191997175605778 -214.09334653480894 2.6486288717819662e-09 6.6963101730266330e-11 1.1011964481610903e-05 -0.0035489303182733535 -9.6874986607300257e-11 -5.2243646064331946e-11 -8.3207588143324306e-10 -0.0035308125823432287 -112.90434805199999 -97.655804887999992 108.38681131359999 128.09762094244454 0.0000000000000000 0.0000000000000000 0.0000000000000000 0.0000000000000000 3.3824830220984770 3.7975703930090252 1.4158710952696190 1.1871992759666372 1716.0724454727676 1716.0570703535270 1.1898834534452933 
-110.54407790368930 -104.33158330508867 87.224878860068998 -110.54407790368937 -104.33158330508874 87.224878860069069 -275.05340746350629 -9.3872307431522146e-05 -1.3649645983184547e-05 -0.00010002398343646062 0.0000000000000000 2.5252480106985331e-09 9.2230001413895479e-11 1.1930287076467039e-05 -0.0040985544457627782 2.5648685158713004e-10 -2.4495536082696752e-10 -4.7395504359251748e-10 0.0000000000000000 -107.15466629968294 -103.84120130723400 100.55016500991876 102.24201981555134 0.0000000000000000 0.0000000000000000 0.0000000000000000 0.0000000000000000 3.3661308666141134 3.7558283549719396 1.3900717017316644 1.1786018193626684 1752.0454256053049 1752.0917995921122 1.1789797063416261 
-27.961006240399136 -116.11167218677301 90.297777197041100 -27.961006240399122 -116.11167218677295 90.297777197041057 -10.987813110799841 2.6301745059625637e-05 2.6703699556365197e-06 -3.1908102623012579e-05 0.0000000000000000 -5.0462668854420018e-07 2.1203760665847215e-06 9.4396238816049881e-06 -0.00021295523548509621 4.4581510399439481e-12 -1.6333829953815997e-09 -1.7357446167606928e-10 0.0000000000000000 -26.889884864405381 -115.37486796036181 103.37575244326078 96.382960025775517 0.0000000000000000 0.0000000000000000 0.0000000000000000 0.0000000000000000 3.4108194619395280 3.8587827468349514 1.4488902853663028 1.2021089003258061 1419.8953865884660 1420.0468732611414 1.2036954741939783 
-113.02727070230844 -104.10738929687119 145.63203104386508 -113.02727070230844 -104.10738929687115 145.63203104386506 -136.39405797547269 -2.2817476870571866e-06 -6.6311919838228090e-06 -1.3148838956854862e-06 -136.57646898127152 2.5770461320462346e-09 9.1334717566837753e-11 5.8780975358274637e-06 -0.00048562001509507897 1.0747446322663976e-11 2.0541419042981529e-11 4.8056106966408888e-11 -0.00045711266250770855 -109.56833416800004 -103.62177336400003 152.19744990400002 70.302883591683823 0.0000000000000000 0.0000000000000000 0.0000000000000000 0.0000000000000000 3.3789652281807916 3.7879501607921657 1.4096516436526867 1.1874724976215356 1561.9685241895825 1563.0196460910886 1.1872888665194405 