# For a description of the Tecplot format see the Tecplot User's guide.
#
Variables=x,y,z,s_u,s_v,s_w,s_p,mono_f_vel_u,mono_f_vel_v,mono_f_vel_w,const,u_nu,v_nu,w_nu,p_nu,x_nu,y_nu,z_nu,const,u_ref,v_ref,w_ref,vol_ref,x_ref,y_ref,z_ref,const,I1,I2,I3,J,p1,p2,p3
Zone f=fepoint, n=3174, e=16683, et=brick, c=black
-25.9843 -155.838 99.6703 -25.984346532558774 -155.83757582681224 99.670306866484893 -8.6146967913803714 -2.3745883355892547e-05 -1.9837907447664534e-05 -4.1800314254707285e-05 39.734146719986370 5.1151024527129599e-09 2.6376343331691032e-09 1.7360253472986642e-05 0.0073793584110846229 9.5240817881194743e-11 -8.3067161853991906e-10 -9.9092300773710052e-12 0.0067255974582872977 -24.903554063199991 -154.16086777200002 112.24023381839994 89.724962256112903 0.0000000000000000 0.0000000000000000 0.0000000000000000 0.0000000000000000 3.4102240849119450 3.8553177829018770 1.4458627346937130 1.2033827186513593 1402.6604758296523 1402.6614457799699 1.2023845060721949 
-38.905982749808388 -156.98748316618429 102.67197772994530 -38.905982749808366 -156.98748316618426 102.67197772994537 6.7210570837610044 4.6531492496092655e-06 5.4426453718669830e-05 -1.5124747251440722e-05 0.0000000000000000 5.9065598458684689e-07 3.5371177852339492e-06 1.8686057058502705e-05 0.0080430809481276452 -1.0464866990904137e-10 1.7070845132845639e-09 2.5278549965147180e-09 0.0000000000000000 -37.438273663334591 -155.10473791080037 114.93291110338620 89.036758072416930 0.0000000000000000 0.0000000000000000 0.0000000000000000 0.0000000000000000 3.4374797575061389 3.9210018365645003 1.4848919833743606 1.2142992811510447 1485.1698450496528 1485.1683037143878 1.2185876993239009 
-32.826007302296070 -149.41129263748169 108.35443066833621 -32.826007302296055 -149.41129263748181 108.35443066833616 10.403393833395794 -8.9804952253842825e-06 4.1880897274270155e-05 -4.1853152030527586e-05 0.0000000000000000 6.0739315799196439e-09 2.4103334883562866e-09 1.5892141970397233e-05 0.0077473429862928477 -1.6651664187075965e-11 3.3700206451383817e-09 -3.4166241366090425e-09 0.0000000000000000 -31.542619574254449 -147.87907313389167 119.86135157363466 98.260374494724786 0.0000000000000000 0.0000000000000000 0.0000000000000000 0.0000000000000000 3.4154970333990486 3.8686463662411330 1.4540748723063479 1.2062604428984398 1421.3958616224406 1421.3958693170491 1.2058326908097743 
-29.842701865135211 -144.38662649572765 99.538454164360203 -29.842701865135229 -144.38662649572771 99.538454164360232 7.8019823034546194 -3.0563238820456960e-05 -1.4252847801391052e-06 4.4754231802782608e-05 0.0000000000000000 5.6558325800537546e-09 2.2326156479124389e-09 1.7382544086785856e-05 0.0068221986563422737 1.4372474185758163e-09 1.0654899872695977e-09 8.2023500940385812e-10 0.0000000000000000 -28.647655777685479 -142.96738158566356 112.12452093910819 112.69127588814607 0.0000000000000000 0.0000000000000000 0.0000000000000000 0.0000000000000000 3.4205732658657833 3.8799662316410948 1.4604046803400597 1.2072519476299537 1433.8710098786801 1433.8713563338172 1.2084760033809079 
-25.323070973919300 -203.17316104480426 55.784667039578054 -25.323070973919300 -203.17316104480426 55.784667039578046 -836.07615135833260 2.5355376920238419e-05 4.1155143540532724e-06 1.1272217149800355e-05 -846.11692567828300 5.0224273628884938e-09 4.3118697501398628e-09 2.4779426016863226e-05 0.0097135399583166866 1.7625320866186396e-11 -1.4433140939300127e-12 -2.7691424543183476e-11 0.0097126049290355860 -24.261860196399997 -200.43215969199997 73.726546483199982 142.71380061529433 0.0000000000000000 0.0000000000000000 0.0000000000000000 0.0000000000000000 3.4073365280410082 3.8500424165203109 1.4435699654573304 1.2012628382796655 2870.9346297968327 2870.9345957858091 1.2014874448103594 
-25.215420803472508 -190.08582336031998 57.588849065236872 -25.215420803472508 -190.08582336031995 57.588849065236886 -811.55457478221410 4.9215925874488090e-05 -5.1572915736866124e-05 -1.5573109237485768e-05 -825.57141645491106 5.0073406532291642e-09 3.8489795795015880e-09 2.4474416505881891e-05 0.0096294889491545417 -1.4586597439214301e-10 1.9219718146420721e-10 9.7835748119451985e-11 0.0096387435131119453 -24.157397762799999 -187.63907770800003 75.309882232799993 165.73632395326644 0.0000000000000000 0.0000000000000000 0.0000000000000000 0.0000000000000000 3.4072237791732256 3.8496514846619858 1.4432824669198643 1.2012628382796655 2829.5627087498719 2829.5623081968042 1.2013635360587820 
-36.270941389395091 -198.03684536686956 64.752538729364829 -36.270941389395119 -198.03684536686970 64.752538729364858 -784.42292006333162 3.5883619383507965e-05 -3.5359825175909670e-05 -7.4309641300137678e-05 0.0000000000000000 6.5567210549843935e-09 4.1301857489628438e-09 2.3263344964163934e-05 0.0096800546504915586 4.2705854610938751e-11 2.2798527887036663e-10 4.3379500582614220e-11 0.0000000000000000 -34.885542273181727 -195.41132893576267 81.596679120775832 139.46796289390394 0.0000000000000000 0.0000000000000000 0.0000000000000000 0.0000000000000000 3.4045757217378290 3.8441582411363675 1.4404424231501871 1.1990407991157916 2773.2969766306192 2773.2980636017119 1.2001828139643249 
-19.717829322757414 -197.13493794634761 64.543188464163691 -19.717829322757428 -197.13493794634755 64.543188464163691 -830.57219251971412 2.6119035863680845e-05 -2.1398740451016928e-05 -3.6657876017196674e-05 0.0000000000000000 4.2368749619825516e-09 4.0982877091977343e-09 2.3298737072963149e-05 0.0096779435529422229 -7.7933195354704364e-11 1.0846314407781130e-10 7.3736205697757742e-12 0.0000000000000000 -18.822600960987238 -194.52970000168264 81.412954998504986 111.95285379220412 0.0000000000000000 0.0000000000000000 0.0000000000000000 0.0000000000000000 3.4076661414682552 3.8506383777339619 1.4438332774959028 1.2012628382796677 2873.9949480989903 2873.9952767694044 1.2015984236999848 
-23.676432595876051 -103.71264035778094 21.044304531899300 -23.676432595876051 -103.71264035778096 21.044304531899300 -556.58363784409960 -2.8807642747828530e-05 3.3213642497765476e-05 -4.5809713745256909e-05 -570.46834764299990 4.7916556278337907e-09 7.9399087304921078e-10 3.0652525843777319e-05 0.011608972012338258 2.0372773008427786e-10 -4.7010759134867897e-10 6.0455871095778578e-10 0.011709216402648144 -22.663982073999996 -103.20790935200000 43.238681550399988 69.202643319072678 0.0000000000000000 0.0000000000000000 0.0000000000000000 0.0000000000000000 3.4067808594439875 3.8488079544456864 1.4428870865504102 1.2012628382796655 2385.6831642772036 2385.6831560348433 1.2012032793120773 
-31.392602429350358 -111.45184625516977 25.317445529043976 -31.392602429350351 -111.45184625516980 25.317445529043976 -531.43811789765880 7.4832501181857853e-06 4.9030142154727120e-05 -6.8952727719478413e-05 -529.31338471021411 5.8730426077957523e-09 1.0677172479489627e-09 2.9930121648646946e-05 0.011330862707491618 2.6216782823387079e-10 -7.0767076571837844e-10 7.1300930469697831e-10 0.011312892449281397 -30.151660686400003 -110.77310694400001 46.988755992800002 74.715282964229786 0.0000000000000000 0.0000000000000000 0.0000000000000000 0.0000000000000000 3.4073673898773364 3.8499865084066296 1.4434773468762898 1.2012628382796644 2335.0880847368830 2335.0880949820448 1.2014499159235448 
-19.627710064288809 -104.08003993794087 28.758296447455560 -19.627710064288809 -104.08003993794090 28.758296447455560 -512.30321103702499 -3.7580045618315233e-05 2.5014845976865523e-05 -7.5238492269050881e-05 -516.90409279813582 4.2242446207652051e-09 8.0698225879416431e-10 2.9348421879404892e-05 0.011129305844207149 3.4839771603552834e-10 -6.0482832068328431e-10 7.1232190173172015e-10 0.011145238335564701 -18.735150314000002 -103.56704831999998 50.008419303199993 79.719497061372692 0.0000000000000000 0.0000000000000000 0.0000000000000000 0.0000000000000000 3.4068071274561511 3.8488441356165026 1.4428959722058072 1.2012628382796662 2305.7423622215474 2305.7423651520953 1.2012061881341196 
-26.590624813977591 -98.883747360003667 29.867944933786383 -26.590624813977577 -98.883747360003724 29.867944933786369 -519.50110199769392 8.9266220052696465e-06 5.9330875143943449e-06 -0.00011800330688534589 0.0000000000000000 5.2000693750997584e-09 6.2318838978114854e-10 2.9160828084684457e-05 0.011431665372959312 1.7217066599483368e-10 -4.0702346922973955e-10 7.3239469804852050e-10 0.0000000000000000 -25.491879232152165 -98.487589184379729 50.982237960580505 72.292163684038698 0.0000000000000000 0.0000000000000000 0.0000000000000000 0.0000000000000000 3.4069818787069299 3.8493125433438418 1.4431960916606077 1.2012628382796660 2317.0902337494681 2317.0902412148857 1.2013297730462584 
-26.406938305836658 -104.75588029128217 95.681905943536080 -26.406938305836658 -104.75588029128220 95.681905943536080 8.0576464679579693 -2.6376352202910090e-06 2.4709698318788933e-05 2.0256462695846447e-05 0.0000000000000000 6.4519246975895315e-07 -9.2331954097339466e-07 2.1173676209840921e-05 0.0066573656303637241 -5.7869819246541736e-09 -9.5082819649899152e-10 7.8945538117391162e-09 0.0000000000000000 -25.283559732051039 -104.23282252886388 108.75695162467670 96.378087069502698 0.0000000000000000 0.0000000000000000 0.0000000000000000 0.0000000000000000 3.4160642848640164 3.8696921362317807 1.4545679878987194 1.2072376108801834 1415.0115325687484 1415.0069357287650 1.2060452137370417 
-27.053482846061897 -118.85909962041742 97.824605639026089 -27.053482846061907 -118.85909962041748 97.824605639026117 11.323203579302076 -2.0720703448716749e-05 -7.4897743621087800e-06 1.4923992095051191e-05 0.0000000000000000 1.5774986806109367e-07 -3.0296172278893957e-07 2.3006195103374001e-05 0.0065951781463239731 -4.7023307935674516e-09 3.1046344942273324e-09 9.4253554037873614e-09 0.0000000000000000 -25.913646985361510 -118.01095136745833 110.66456878241424 88.846747377876298 0.0000000000000000 0.0000000000000000 0.0000000000000000 0.0000000000000000 3.4298106412730465 3.8989932760287083 1.4701864593720604 1.2100910818336568 1463.6681244349672 1463.6682926745409 1.2125185946790464 
-37.721488241552485 -113.41508528081674 99.373796688725378 -37.721488241552471 -113.41508528081668 99.373796688725321 7.0736012823768943 -1.4354199901473406e-05 -3.0087463208709299e-05 -1.3655638601064233e-05 0.0000000000000000 3.1066332551353856e-06 -3.3742025411480267e-06 2.3836089564954500e-05 0.0045294218723104483 2.8494997213786918e-09 6.4969501107782352e-10 -1.4223034705630824e-09 0.0000000000000000 -36.236867317722961 -112.72601430119678 112.03758904139967 95.996160021407249 0.0000000000000000 0.0000000000000000 0.0000000000000000 0.0000000000000000 3.4248520222938335 3.8887205007699062 1.4648812520591132 1.2103251722382020 1465.1131342820177 1465.1128701129733 1.2103218634512869 
-34.754259294950494 -105.59698077018581 92.050409123028359 -34.754259294950515 -105.59698077018582 92.050409123028345 11.944450598137093 -1.5310682533970786e-05 1.2389792815303501e-05 1.7374437732038120e-05 0.0000000000000000 1.9160626556066004e-06 -4.9084467721308235e-06 2.5517380677301923e-05 0.0065489247079178834 -3.2165662899288397e-09 -3.4947285717641265e-09 5.0193425762801585e-09 0.0000000000000000 -33.380789828628046 -105.09637623893835 105.63342596379557 85.433794965156210 0.0000000000000000 0.0000000000000000 0.0000000000000000 0.0000000000000000 3.4319422280663430 3.9038098083360664 1.4729015659487525 1.2113509875254849 1446.2985584150476 1446.2995979083141 1.2136316012839503 
-115.96471342126439 -162.48975526120833 113.82726924059247 -115.96471342126439 -162.48975526120833 113.82726924059246 -113.16955828314802 7.1847957870031208e-06 -1.9389116608072502e-05 -2.6785645010616456e-05 -112.12062570811598 1.7725457657213894e-08 2.8729154610829251e-09 1.4966920552694775e-05 0.0084475045650982909 -9.5583925466500984e-11 2.4878652733015383e-10 7.5255406500827694e-10 0.0083716548942910120 -112.21942232800005 -160.66347960400000 124.66427103520003 147.55923210393107 0.0000000000000000 0.0000000000000000 0.0000000000000000 0.0000000000000000 3.4103926680405077 3.8577873683547845 1.4483517688537919 1.2012628382796660 1623.3560628437078 1623.3566891063026 1.2034862929960866 
-102.89076273682653 -159.86187945706072 104.62090719852937 -102.89076273682655 -159.86187945706075 104.62090719852937 -129.07381635388734 -2.9769505821448216e-05 -2.8436050516510879e-05 -5.9873855021227221e-05 0.0000000000000000 1.5893198868077718e-08 2.7799675894613070e-09 1.6523320070405134e-05 0.0091104519499513037 9.8355360543723672e-11 -5.6681200173577115e-10 7.6764790365007258e-10 0.0000000000000000 -99.532617471171264 -158.09468895943013 116.58484116745363 117.70414803503969 0.0000000000000000 0.0000000000000000 0.0000000000000000 0.0000000000000000 3.4003917232509870 3.8300719052505521 1.4301632261494936 1.1973226961387731 1614.8393015243635 1614.8399325802332 1.1958811367560316 
-107.84748631701807 -150.40964629993502 109.52856289980676 -107.84748631701811 -150.40964629993502 109.52856289980674 -89.069389724574222 -1.7828130650516829e-05 -4.9080275163965212e-05 -2.0257059286891831e-06 0.0000000000000000 1.6587867190942515e-08 2.4456536795725015e-09 1.5693646751913093e-05 0.0085964363179978891 -8.8427766952330422e-10 5.9127326604903431e-10 9.5585379798585092e-10 0.0000000000000000 -104.34256255272837 -148.85497981259945 120.89176065121424 119.29379793442074 0.0000000000000000 0.0000000000000000 0.0000000000000000 0.0000000000000000 3.3995875287132793 3.8303710501918760 1.4314231399285713 1.1985811838907192 1544.7702060076774 1544.7699933521874 1.1964096221796501 
-103.91900321753675 -164.14658247811465 113.71735985323784 -103.91900321753670 -164.14658247811468 113.71735985323781 -113.66567118437993 -1.1853885185493716e-05 -4.5880991565522420e-05 -3.1601550349305948e-05 0.0000000000000000 1.6037305372584854e-08 2.9315130323226413e-09 1.4985501501030283e-05 0.0085845469629161012 -3.0139843899479486e-10 2.9871937139522168e-10 7.0275572864590396e-10 0.0000000000000000 -100.53040969477119 -162.28305471776312 124.56781543385799 141.51484144144280 0.0000000000000000 0.0000000000000000 0.0000000000000000 0.0000000000000000 3.3999987518104295 3.8330601011234391 1.4338065846040728 1.1978774457231658 1589.9023087312810 1589.9016240152635 1.1974103956280497 
-81.113813828272711 -150.35078094673435 73.699235612278301 -81.113813828272697 -150.35078094673437 73.699235612278272 -197.56463201413922 -8.3336872804566064e-05 -5.1357608110375555e-05 -3.1196374060527782e-05 -204.55909212732587 1.2841249064088345e-08 2.4435669043754160e-09 2.1750843643530970e-05 0.0095858327332644915 -4.4530898880725902e-11 8.5548202853968172e-11 2.2097417745277666e-10 0.0097353991895361442 -78.400527573600002 -148.79743798799998 89.448228916799977 108.06316173413846 0.0000000000000000 0.0000000000000000 0.0000000000000000 0.0000000000000000 3.4172575836734036 3.8706650158073974 1.4543029006037147 1.2012628382796680 1800.9759019009762 1800.9768735822984 1.2060018074904504 
-82.916016364981672 -164.40395892846087 71.790354083167770 -82.916016364981687 -164.40395892846087 71.790354083167784 -336.88038798285845 -3.8869763535176718e-05 -0.00012386653796604764 -5.7014321993921096e-05 -339.61762743550747 1.3093832795796347e-08 2.9406137525000986e-09 2.2073553338941568e-05 0.0097301420012922916 -6.7219295797521498e-10 2.4374508068437746e-10 -1.2641683225431373e-10 0.0098834978430308307 -80.149363288800018 -162.53464431600008 87.773009718400019 109.57810873427631 0.0000000000000000 0.0000000000000000 0.0000000000000000 0.0000000000000000 3.4190951359954358 3.8743499643478505 1.4561308101175217 1.2012628382796664 2037.4092512879467 2037.4068443916522 1.2067808373952074 
-87.188653005165648 -161.99969041590444 79.994833313398146 -87.188653005165648 -161.99969041590438 79.994833313398161 -257.21899523903664 -1.4677637348481317e-05 -6.8414322743750724e-05 -0.00012634702753623381 0.0000000000000000 1.3692612932381111e-08 2.8555835474008977e-09 2.0686529072833082e-05 0.0096791807280776059 3.2130634154536698e-10 4.9052331679519334e-10 4.7685869039936921e-10 0.0000000000000000 -84.295478612813938 -160.18443337667750 94.973195224810283 106.11323630727971 0.0000000000000000 0.0000000000000000 0.0000000000000000 0.0000000000000000 3.3805499459599164 3.7957084632388560 1.4160571269591220 1.1920681272240103 1774.6402661292943 1774.6423643410833 1.1898731319403335 
-89.433664351118566 -153.00312743309644 77.329915804736700 -89.433664351118537 -153.00312743309635 77.329915804736672 -234.26032586415474 -2.7383955319587768e-05 -9.4627305877771747e-05 -0.00011049643375902092 0.0000000000000000 1.4007248805292249e-08 2.5373816381346614e-09 2.1137051909647656e-05 0.010073769366275567 1.1620418629347835e-09 -5.0049991682584291e-10 1.8946955729130594e-10 0.0000000000000000 -86.474010682800568 -151.39014911596544 92.634484883397832 94.367740677547317 0.0000000000000000 0.0000000000000000 0.0000000000000000 0.0000000000000000 3.3922492614503756 3.8193814329731732 1.4280141580940588 1.1942286573315910 1770.4886362464165 1770.4885161175944 1.1949928796060088 
-27.133477052304332 -133.60778863153689 129.75762547346261 -27.133477052304332 -133.60778863153695 129.75762547346264 -34.886447786855747 1.2885686711102365e-05 -2.0837306886362521e-05 0.00010215414501078497 -46.008938004924218 5.2761474078621973e-09 1.8513730548619378e-09 1.2273783056571121e-05 0.0064601352767148278 2.0386033657830582e-10 -1.3502758883749253e-10 -1.8992983760307756e-09 0.0063760800887880153 -26.018656529999991 -132.43089511199997 138.64462455200004 49.421240865332216 0.0000000000000000 0.0000000000000000 0.0000000000000000 0.0000000000000000 3.4062334177311446 3.8473653846191858 1.4419787347636654 1.2017720919930408 1472.2058085338538 1472.2058154331792 1.2008257816801264 
-33.807910767859475 -135.16880472538946 128.57065662297703 -33.807910767859461 -135.16880472538941 128.57065662297694 -26.202386638759123 -6.7156449415241804e-06 9.0107790607248858e-06 1.9101154183543966e-05 60.655071043776637 6.2115380616845073e-09 1.9065848899657567e-09 1.2474448411126106e-05 0.0068559709951412631 8.1796734789613105e-10 1.3023738048840065e-09 -5.8093574638780086e-10 0.0037672688142871787 -32.495446914399992 -133.95681332000001 137.60295016000006 48.530522504776933 0.0000000000000000 0.0000000000000000 0.0000000000000000 0.0000000000000000 3.4150465285849423 3.8675490120392060 1.4534463826461632 1.2049401434161993 1485.7635570842074 1485.7635556307898 1.2055895083444701 
-29.606248074193445 -137.70785655471744 131.65531820622081 -29.606248074193445 -137.70785655471744 131.65531820622078 -33.547913333990422 1.6741695159804067e-05 3.5616018119919186e-05 2.3336568096485393e-05 -42.988075589329711 5.6226938660586256e-09 1.9963877218032167e-09 1.1952964907635533e-05 0.0073284188304833554 -4.0036561658162407e-10 1.5224997158796509e-09 4.7897950613360099e-10 0.0076082037770116703 -28.418203856399998 -136.43877710800004 140.31002455199999 44.353383947079159 0.0000000000000000 0.0000000000000000 0.0000000000000000 0.0000000000000000 3.4061419388036374 3.8469284681932332 1.4416165439095150 1.2021930908435816 1469.3794768749719 1469.3794767602997 1.2006774960199196 
-27.906063853988783 -130.61125661837985 135.68715729687415 -27.906063853988780 -130.61125661837983 135.68715729687409 -52.408032895566954 1.5541095211259174e-05 2.1311168830132437e-05 5.5910241691962510e-06 0.0000000000000000 5.3844202430042287e-09 1.7453698486491478e-09 1.1271354495079322e-05 0.0068302511267727996 2.8049890163832966e-10 4.1014604283661352e-10 -3.4714785352503987e-10 0.0000000000000000 -26.768365491316434 -129.50173712462359 143.84833436668455 49.139845408488213 0.0000000000000000 0.0000000000000000 0.0000000000000000 0.0000000000000000 3.4054244900327517 3.8461817140234769 1.4416261701758151 1.2014454646001920 1517.3437626395489 1517.3437570475899 1.2006760948462984 
-41.612330248278724 -65.112926024757471 147.20167251923189 -41.612330248278724 -65.112926024757471 147.20167251923189 -83.347017921149387 7.4751239126407026e-06 -1.4326952466362802e-05 3.7580840174734895e-05 -86.582875093301041 7.3052947024976334e-09 -5.7125593144746755e-10 9.3247456263156908e-06 0.0075034483557504033 -4.3822355888832567e-11 8.1566031491561810e-11 -2.7760621035442622e-10 0.0075165537761633762 -40.068761925200000 -65.476070995999990 153.95338104800004 156.95717166164070 0.0000000000000000 0.0000000000000000 0.0000000000000000 0.0000000000000000 3.4062202744423882 3.8478859014534232 1.4425406856030623 1.2005481980911326 1558.0070120286252 1558.0127278166769 1.2010594829958043 
-54.347438246670087 -59.158757779128990 141.85799750691274 -54.347438246670087 -59.158757779129012 141.85799750691280 -79.187090119303619 -2.0524068560919083e-05 1.2024558413583563e-06 1.1824506655331021e-05 -81.983507796575296 9.0900643678892851e-09 -7.8185502516703299e-10 1.0228131042566702e-05 0.0074710221931042270 1.1181075365064179e-10 -6.7369992625489026e-11 1.0068651057170391e-10 0.0074562559891594438 -52.426757905599978 -59.655776269200025 149.26381449600007 118.05125250056595 0.0000000000000000 0.0000000000000000 0.0000000000000000 0.0000000000000000 3.4073063395217553 3.8501986961334471 1.4437711029758158 1.2005214074814543 1554.1710332851651 1554.1491455665491 1.2015709401298866 
-36.567085807109393 -65.679360918507996 136.99899321854002 -36.567085807109386 -65.679360918507996 136.99899321853997 -69.233404375926213 1.0698887304149223e-05 -8.9958916169147141e-06 -4.0115803349200987e-06 -67.663903237663732 6.5982236341355360e-09 -5.5123172693072320e-10 1.1049579512700802e-05 0.0073579777438178709 5.7858464004702063e-11 -3.5973867205829642e-11 2.9612782709172414e-11 0.0073208015992356776 -35.172917262399999 -66.029770167599992 144.99959110400002 155.12084301790807 0.0000000000000000 0.0000000000000000 0.0000000000000000 0.0000000000000000 3.4069756919993242 3.8491108255627817 1.4429908355489416 1.2010829131608058 1534.9377891491154 1534.9421217714423 1.2012455157263040 
-52.272052255885562 -66.252607822732699 133.81286522316861 -52.272052255885541 -66.252607822732685 133.81286522316853 -69.460745542063322 -1.3431488473460569e-05 1.5459314869611401e-05 3.8606303931915535e-06 0.0000000000000000 8.7992085839871947e-09 -5.3094639795858722e-10 1.1588216590752154e-05 0.0074445682398104592 6.9409070931468664e-11 -4.6657682237190257e-11 -1.3314995342794444e-12 0.0000000000000000 -50.412828244765279 -66.590128188430739 142.20347059834828 136.07757377940416 0.0000000000000000 0.0000000000000000 0.0000000000000000 0.0000000000000000 3.4021764644944033 3.8377984402748280 1.4363851597167780 1.1995138790028521 1518.3855684794064 1518.3818397923940 1.1984918279773098 
-97.766112976989987 -160.49824980043027 60.229010284301253 -97.766112976989987 -160.49824980043030 60.229010284301246 -467.95635470366949 -4.3302033830134013e-05 -2.1024418543502035e-05 -6.8885090941262742e-05 -467.45307066311847 1.5175006251588744e-08 2.8024567111373244e-09 2.4028078893678639e-05 0.010633191479958190 6.8428888672354673e-10 -6.3751112909391274e-10 5.7366123506686823e-10 0.010527822977413771 -94.559718839999974 -158.71675115199997 77.626866652000004 109.98746742214213 0.0000000000000000 0.0000000000000000 0.0000000000000000 0.0000000000000000 3.4064771158353344 3.8481987704572096 1.4425841146124143 1.2012628382796662 2227.5911399273032 2227.5909460842336 1.2010743851413628 
-92.739691211698684 -160.24214559753258 65.711611586200178 -92.739691211698684 -160.24214559753258 65.711611586200192 -395.41096997036311 -8.5264367569174129e-05 -6.5515797167649842e-05 -9.9857131270158063e-05 -374.94770495675760 1.4470569742464081e-08 2.7934043966837407e-09 2.3101207020204132e-05 0.010130972410588463 7.5197226687308794e-10 -7.5416062738582588e-10 5.2717207274460933e-10 0.010064180688717532 -89.682139475999989 -158.46640519600001 82.438353807199988 112.88451412247700 0.0000000000000000 0.0000000000000000 0.0000000000000000 0.0000000000000000 3.4091316857501344 3.8531815284011177 1.4448865549740735 1.2012628382796655 2100.5096274864695 2100.5107180898131 1.2020299522604234 
-106.16496761624738 -156.63876053648977 70.463970443491405 -106.16496761624738 -156.63876053648980 70.463970443491448 -385.19572413104282 -1.8150618689279703e-05 7.6556828951838423e-06 -0.00013523789009502570 0.0000000000000000 1.6352066922742384e-08 2.6659725538280550e-09 2.2297787708680517e-05 0.010761502813119633 7.6194307496266273e-10 -6.8096878192486192e-10 7.8279896978971641e-10 0.0000000000000000 -102.70986659571734 -154.94403864466588 86.608986019839278 111.02505284862640 0.0000000000000000 0.0000000000000000 0.0000000000000000 0.0000000000000000 3.4078238885146179 3.8511573624363069 1.4441987698390120 1.1992822230020928 2093.9631529222083 2093.9633629533710 1.2017609568839565 
-103.79189424879881 -169.14993644995079 67.115135445333351 -103.79189424879874 -169.14993644995079 67.115135445333394 -423.04481458626594 -7.3330201557786235e-06 -8.3511584089251680e-06 -0.00013186011221458799 0.0000000000000000 1.6019489401664089e-08 3.1084794738234223e-09 2.2863931555150430e-05 0.010265345528268648 6.1765940074878998e-10 -1.3523495338189256e-10 3.9419785802543641e-10 0.0000000000000000 -100.40706467681501 -167.17391327890167 83.670075146830683 105.53983917324770 0.0000000000000000 0.0000000000000000 0.0000000000000000 0.0000000000000000 3.4062275892199656 3.8476451164573406 1.4422740561239566 1.1997371451804684 2137.9376243091897 2137.9374271554266 1.2009473337933587 
-118.44273243632735 -100.23233116182264 81.816942679801556 -118.44273243632735 -100.23233116182267 81.816942679801542 -239.45438776759244 -1.7306631427775981e-05 -2.6496204566667576e-05 -7.3788240824866565e-05 -248.88253452348033 1.8072747858434177e-08 6.7089245270324227e-10 2.0378488823524776e-05 0.012496516781293253 3.3026959776107925e-10 4.2719399209346146e-10 1.7157806895214429e-09 0.012540094342843358 -114.62406224400000 -99.805851428000011 96.572263865600007 85.211636250682801 0.0000000000000000 0.0000000000000000 0.0000000000000000 0.0000000000000000 3.4081864756495723 3.8524257228814043 1.4450704210701546 1.1955730076456734 1833.0101998672556 1833.0069678321449 1.2020832798686172 
-114.79831378318686 -91.323822805549497 85.974916500380616 -114.79831378318683 -91.323822805549511 85.974916500380601 -200.83935765317884 -4.2780376229495119e-06 3.4635080647265378e-06 -7.7797316944064392e-05 -199.72334581549379 1.7561988419068086e-08 3.5580627333331449e-10 1.9675554444376075e-05 0.011928895666739157 -6.1315009509741660e-11 -5.5203938904595300e-10 1.8152878935089229e-09 0.011555058921789792 -111.08756211600000 -91.097641973600034 100.22126851279998 99.535403830130534 0.0000000000000000 0.0000000000000000 0.0000000000000000 0.0000000000000000 3.4170784576518876 3.8702589171372641 1.4540690305819175 1.1991978764547526 1795.3201022733049 1795.3223854306113 1.2058546734215960 
-116.67054008441031 -98.032831061570889 95.279402649116150 -116.67054008441029 -98.032831061570903 95.279402649116122 -132.89792661983321 -1.2530437760872218e-05 -1.2571236672766094e-05 -0.00010753900102918589 -136.22172459978586 1.7824379416886416e-08 5.9309779310012810e-10 1.8102566365030270e-05 0.010693433828735357 4.0676279516615855e-10 9.1217337717384306e-10 1.6689359109163898e-09 0.010567610029251117 -112.90434805199999 -97.655804887999992 108.38681131359999 128.09762094244454 0.0000000000000000 0.0000000000000000 0.0000000000000000 0.0000000000000000 3.4078370827444648 3.8522237214287647 1.4453099525280777 1.2001603150174729 1660.0490981551413 1660.0489214777126 1.2021914490993735 
-110.74540317804858 -104.36049876136040 86.349688022184353 -110.74540317804852 -104.36049876136033 86.349688022184353 -191.77712978768440 -8.1275958383527944e-05 -1.3568286931220294e-05 -8.5954672413602335e-05 0.0000000000000000 1.6993988549707240e-08 8.1689832676090656e-10 1.9612196705764976e-05 0.012143329073334982 8.0556029983192814e-11 7.0938952735041460e-10 1.2835670211041636e-09 0.0000000000000000 -107.15466629968294 -103.84120130723400 100.55016500991876 102.24201981555134 0.0000000000000000 0.0000000000000000 0.0000000000000000 0.0000000000000000 3.3945858344765125 3.8180101884012561 1.4239839732961534 1.1929157508110853 1701.3395551115684 1701.3393682985766 1.1932866846781842 
-28.010183927704080 -116.16824419956244 89.469088974563292 -28.010183927704098 -116.16824419956252 89.469088974563277 6.2315831772900330 1.4093225954164517e-05 2.3635500215314632e-06 -1.9409981808166085e-05 0.0000000000000000 -3.2170702764559782e-07 -5.6070957848157952e-07 2.4372906581207396e-05 0.0096854208085981885 -3.1557080035096738e-09 5.2980300075987782e-09 7.7831203570797384e-09 0.0000000000000000 -26.889884864405381 -115.37486796036181 103.37575244326078 96.382960025775517 0.0000000000000000 0.0000000000000000 0.0000000000000000 0.0000000000000000 3.4283632057775622 3.8963419122149778 1.4689995497349002 1.2104685763821492 1447.8228037865288 1447.8231255211288 1.2120218072881315 
-113.23272563907030 -104.13602372132647 145.20082120952094 -113.23272563907034 -104.13602372132642 145.20082120952091 -61.247047771075842 -3.5846853649771664e-06 -1.0137822854214560e-05 -2.9965000463064353e-06 -60.853501602128148 1.7342580815871148e-08 8.0896422893772524e-10 9.6630034498446093e-06 0.0072693446976791155 7.5903293883143315e-12 -8.3520413318184970e-12 6.7372158776305438e-11 0.0072361738703289194 -109.56833416800004 -103.62177336400003 152.19744990400002 70.302883591683823 0.0000000000000000 0.0000000000000000 0.0000000000000000 0.0000000000000000 3.4057974185367810 3.8461668392970627 1.4411962770996074 1.2005964086473286 1517.2179273358236 1517.2178661983246 1.2004987497866924 