# For a description of the Tecplot format see the Tecplot User's guide.
#
Variables=x,y,z,s_u,s_v,s_w,s_p,mono_f_vel_u,mono_f_vel_v,mono_f_vel_w,const,u_nu,v_nu,w_nu,p_nu,x_nu,y_nu,z_nu,const,u_ref,v_ref,w_ref,vol_ref,x_ref,y_ref,z_ref,const,I1,I2,I3,J,p1,p2,p3
Zone f=fepoint, n=3174, e=16683, et=brick, c=black
-25.9571 -155.796 100.020 -25.957109798806808 -155.79562200544885 100.01964107155572 -41.227485905153237 -2.7652680395570972e-05 -4.2426580159056379e-05 -6.6682549918328237e-05 5.0235962506188230 6.5169769580819548e-10 2.5524893310091551e-10 9.0945400081920980e-06 0.0041502492087623711 5.9719704859593697e-10 4.1593602464440102e-09 -5.5634778883567282e-09 0.0045528161576403612 -24.903554063199991 -154.16086777200002 112.24023381839994 89.724962256112903 0.0000000000000000 0.0000000000000000 0.0000000000000000 0.0000000000000000 3.3995777873028667 3.8319664700377905 1.4330596917565226 1.1980547242797679 1423.4339696955076 1413.1403982663246 1.1970342956392697 
-38.871989653039009 -156.98079314831341 102.99635162873756 -38.871989653039009 -156.98079314831335 102.99635162873756 -17.193890034269600 2.1972401799316796e-05 3.5142585078456512e-05 -2.3805554911355903e-05 0.0000000000000000 -1.6325831052506354e-06 8.5853441269329921e-08 8.3790616004058495e-06 0.0038583272528224109 -1.9824641523649961e-09 1.5807951945043118e-09 -6.4754737166596447e-09 0.0000000000000000 -37.438273663334591 -155.10473791080037 114.93291110338620 89.036758072416930 0.0000000000000000 0.0000000000000000 0.0000000000000000 0.0000000000000000 3.4317706514176516 3.9091535725348625 1.4787315333625910 1.2110911325175853 1505.9631408927739 1509.1805138102645 1.2160692347467230 
-32.793665024902197 -149.37295414250119 108.67422258778353 -32.793665024902218 -149.37295414250127 108.67422258778348 -7.5685024177094418 -3.9733854643327897e-06 3.0255872418444314e-05 -4.5400931090026747e-05 0.0000000000000000 7.7385975405519513e-10 2.3325674725072076e-10 8.3254384009023852e-06 0.0033549457290965659 5.7980637930612201e-10 3.7049323185114781e-09 9.7633167743259776e-10 0.0000000000000000 -31.542619574254449 -147.87907313389167 119.86135157363466 98.260374494724786 0.0000000000000000 0.0000000000000000 0.0000000000000000 0.0000000000000000 3.4067713837707179 3.8500118907469560 1.4441137723097623 1.2023237639876259 1425.3174530073450 1410.9681017166463 1.2016843231786971 
-29.812585859493069 -144.35111479930745 99.888236915568257 -29.812585859493080 -144.35111479930754 99.888236915568228 -10.650735810761470 -2.4392770662527392e-05 -1.5161852274965865e-05 3.4953174524209668e-05 0.0000000000000000 7.2058825573151353e-10 2.1606338940216571e-10 9.1062174263356610e-06 0.0027488253227646040 -5.2633519885456649e-10 6.2583765065063955e-10 1.5180412197393537e-09 0.0000000000000000 -28.647655777685479 -142.96738158566356 112.12452093910819 112.69127588814607 0.0000000000000000 0.0000000000000000 0.0000000000000000 0.0000000000000000 3.4127886059699502 3.8635662832032733 1.4517628202174631 1.2033317073363616 1440.6390676608455 1435.8406456011319 1.2048950565196670 
-25.296327712635144 -203.10457696376378 56.283294614494842 -25.296327712635140 -203.10457696376378 56.283294614494835 -901.25237842003924 2.3562573831395791e-05 3.7593181728129899e-06 1.0726969646684975e-05 -911.07380818196827 6.3988991882979452e-10 4.1728420718811766e-10 1.2981232195841129e-05 0.0013759784644257250 -1.0542481820726720e-10 -3.1876934162872733e-11 -3.2266719145322878e-11 0.0013822799816840591 -24.261860196399997 -200.43215969199997 73.726546483199982 142.71380061529433 0.0000000000000000 0.0000000000000000 0.0000000000000000 0.0000000000000000 3.3957562685841123 3.8249779880164079 1.4300182613245875 1.1956098998952680 2946.9517310774713 2946.9517249777532 1.1958346319760655 
-25.188757875408864 -190.02460201070900 58.081339042171990 -25.188757875408864 -190.02460201070900 58.081339042171990 -876.41036564379954 4.7763856995833168e-05 -5.1376700241343308e-05 -1.5688211190108119e-05 -889.93132132007690 6.3796734561805134e-10 3.7248626405528285e-10 1.2821446432553788e-05 0.0014045910346440558 -7.5014700395451483e-11 -1.9113242465183025e-11 -9.1528425983432201e-12 0.0014394231758512472 -24.157397762799999 -187.63907770800003 75.309882232799993 165.73632395326644 0.0000000000000000 0.0000000000000000 0.0000000000000000 0.0000000000000000 3.3956540098914436 3.8246118326861867 1.4297454048106213 1.1956098998952680 2905.0083061622099 2905.0083215357486 1.1957161811181465 
-36.236028352953511 -197.97115089667165 65.220658744401106 -36.236028352953525 -197.97115089667179 65.220658744401121 -850.74191018681461 3.3639485776368811e-05 -3.6107402577481915e-05 -7.4053535311078143e-05 0.0000000000000000 8.3537077255613233e-10 3.9967873455282188e-10 1.2187000706376239e-05 0.0013094754414872895 -1.7643910672097106e-10 -3.6673508712020996e-11 -3.1504826975736016e-11 0.0000000000000000 -34.885542273181727 -195.41132893576267 81.596679120775832 139.46796289390394 0.0000000000000000 0.0000000000000000 0.0000000000000000 0.0000000000000000 3.3929771165051044 3.8190666991245612 1.4268822706020361 1.1933551002687930 2851.4435319840272 2851.4436094532184 1.1945200042682584 
-19.695268935608151 -197.06975087515411 65.012020662198623 -19.695268935608159 -197.06975087515426 65.012020662198651 -894.85438606278876 2.5264609247434174e-05 -2.2356304868789140e-05 -3.6350742613039729e-05 0.0000000000000000 5.3980619973970068e-10 3.9659853179330185e-10 1.2205541633392158e-05 0.0014286293863026481 -5.4866524380095705e-11 7.4598566819434996e-13 -1.4372746072222318e-11 0.0000000000000000 -18.822600960987238 -194.52970000168264 81.412954998504986 111.95285379220412 0.0000000000000000 0.0000000000000000 0.0000000000000000 0.0000000000000000 3.3960965097496496 3.8255977743644674 1.4302949707661718 1.1956098998952691 2948.8781311489424 2948.8781035981942 1.1959517952959819 
-23.650918127480711 -103.70001120961626 21.661114405374292 -23.650918127480711 -103.70001120961626 21.661114405374292 -642.73296914660159 -3.1346073959631186e-05 3.6604235532382915e-05 -5.0584402795436805e-05 -657.13851286459351 6.1048743837943675e-10 7.6830763973134708e-11 1.6057981124362186e-05 -0.0043680708131425584 -1.6712515865648223e-10 3.4220251548467268e-10 -3.9134139142655512e-10 -0.0043981108610405559 -22.663982073999996 -103.20790935200000 43.238681550399988 69.202643319072678 0.0000000000000000 0.0000000000000000 0.0000000000000000 0.0000000000000000 3.3951904965897093 3.8237254730525327 1.4293276108981414 1.1956098998952704 2498.3104787311217 2498.3104872435483 1.1955459996196287 
-31.361329820766684 -111.43486315084732 25.919718719863621 -31.361329820766684 -111.43486315084736 25.919718719863621 -615.31482350042540 6.9552868054825551e-06 5.4426538717785974e-05 -7.4452921100339080e-05 -612.19096061875837 7.4826411733397435e-10 1.0332912303567809e-10 1.5679534239865234e-05 -0.0041964212632781880 -2.3477398660233981e-10 5.8082515459673536e-10 -3.6559154722693682e-10 -0.0040374540720917807 -30.151660686400003 -110.77310694400001 46.988755992800002 74.715282964229786 0.0000000000000000 0.0000000000000000 0.0000000000000000 0.0000000000000000 3.3958518382551950 3.8250579635596842 1.4299970928923125 1.1956098998952698 2443.8220452497349 2443.8220535479691 1.1958272102456320 
-19.605216928034114 -104.06720409652038 29.348864300702978 -19.605216928034114 -104.06720409652037 29.348864300702981 -594.67872962218564 -4.0301620141393125e-05 2.7793858825874159e-05 -8.0428670545639735e-05 -599.01452108477167 5.3819637635399431e-10 7.8096418221207399e-11 1.5374798373102294e-05 -0.0039979721115474152 -3.0320022313911987e-10 3.8928564986759177e-10 -5.3030550804215547e-10 -0.0040266139194098443 -18.735150314000002 -103.56704831999998 50.008419303199993 79.719497061372692 0.0000000000000000 0.0000000000000000 0.0000000000000000 0.0000000000000000 3.3952233098456497 3.8237748839773125 1.4293431997123456 1.1956098998952693 2411.6470427485660 2411.6470591030270 1.1955515597601241 
-26.562935649108521 -98.873834871491368 30.454737903893840 -26.562935649108528 -98.873834871491397 30.454737903893832 -603.33254606237472 8.5537144844236507e-06 7.6038840337403518e-06 -0.00012647246867525779 0.0000000000000000 6.6252292540980307e-10 6.0303095850144928e-11 1.5276523356533289e-05 -0.0042904564605106285 -3.6974732587611503e-10 2.8641362444871050e-10 -5.0147663972636331e-10 0.0000000000000000 -25.491879232152165 -98.487589184379729 50.982237960580505 72.292163684038698 0.0000000000000000 0.0000000000000000 0.0000000000000000 0.0000000000000000 3.3953769116449788 3.8242014608032333 1.4296225896879518 1.1956098998952698 2425.3250870798943 2425.3250588841552 1.1956668500921024 
-26.392315113909135 -104.73518555043695 96.042160589920186 -26.392315113909145 -104.73518555043698 96.042160589920186 -6.3313490564870731 1.9528986524587054e-06 3.6231012879622342e-05 2.0940572577907436e-05 0.0000000000000000 -6.1632092899383491e-07 1.2054102002652249e-06 8.2965198089955127e-06 0.0011253606433435381 6.6285148937718373e-10 1.4638632831501249e-09 -3.0522510749838597e-09 0.0000000000000000 -25.283559732051039 -104.23282252886388 108.75695162467670 96.378087069502698 0.0000000000000000 0.0000000000000000 0.0000000000000000 0.0000000000000000 3.4080157038721244 3.8524831244339461 1.4453554042758394 1.2037976181654182 1411.9258974888069 1411.9796296156703 1.2022145022551955 
-27.040688486038501 -118.83045684271171 98.174179839477816 -27.040688486038480 -118.83045684271165 98.174179839477816 3.2110359072629655 -1.5375539327379080e-05 -8.4223556419065340e-06 1.0393088865906853e-05 0.0000000000000000 -7.4110765962131595e-07 1.7659325536872215e-06 8.0690289444332355e-06 0.0011504333936153900 -2.4723320326374303e-09 -8.3013505168016250e-10 5.7455859290955709e-11 0.0000000000000000 -25.913646985361510 -118.01095136745833 110.66456878241424 88.846747377876298 0.0000000000000000 0.0000000000000000 0.0000000000000000 0.0000000000000000 3.4268359288772809 3.8931140630715086 1.4672869037410385 1.2081182109434845 1466.3229121549716 1465.8166538902176 1.2113288172963950 
-37.718046640452940 -113.36917566883768 99.722120155082109 -37.718046640452940 -113.36917566883768 99.722120155082067 -1.2120638735147327 -1.9609847138512155e-05 -2.6244532616260905e-05 -1.1871997777225678e-05 0.0000000000000000 -1.3985209551708566e-06 4.6358598977885577e-06 6.1861798508216725e-06 0.0011265803815465657 -3.9552781265761942e-10 -2.2071727425723867e-09 -1.7710302790896392e-09 0.0000000000000000 -36.236867317722961 -112.72601430119678 112.03758904139967 95.996160021407249 0.0000000000000000 0.0000000000000000 0.0000000000000000 0.0000000000000000 3.4222452611371321 3.8836597186204505 1.4624416858569511 1.2089315099231357 1469.2115718181979 1468.8895579716309 1.2093131141141638 
-34.742415390443789 -105.55451136108582 92.411151129475869 -34.742415390443767 -105.55451136108589 92.411151129475897 -1.1478172571516256 -1.5469489784188911e-05 2.6218049347055243e-05 2.0231750651718047e-05 0.0000000000000000 -1.4665727217585253e-06 4.2026572796278820e-06 6.0379171706801925e-06 0.0010994531168729031 2.1983087496915128e-10 -4.6102122418954597e-10 6.3316563924402197e-10 0.0000000000000000 -33.380789828628046 -105.09637623893835 105.63342596379557 85.433794965156210 0.0000000000000000 0.0000000000000000 0.0000000000000000 0.0000000000000000 3.4279840375934372 3.8954541787682464 1.4684807363939310 1.2089574075775116 1449.1751518515596 1449.2501449824338 1.2118087255066634 
-115.87032943985919 -162.44405902776862 114.12844325868761 -115.87032943985922 -162.44405902776862 114.12844325868762 -171.86204257144468 7.9998998575399421e-06 -2.2345934015148434e-05 -3.3445100584279928e-05 -170.34963644049225 2.2583407366383312e-09 2.7803070956622378e-10 7.8407413788283975e-06 0.00014695317541748004 -8.2770275172618130e-11 2.1472947587228688e-10 -3.8772111374990079e-10 0.00021426989973256447 -112.21942232800005 -160.66347960400000 124.66427103520003 147.55923210393107 0.0000000000000000 0.0000000000000000 0.0000000000000000 0.0000000000000000 3.4002257922441932 3.8360515330155120 1.4367364985245528 1.1956098998952687 1692.6996302059813 1692.6868070525434 1.1986609866645030 
-102.80613510377563 -159.81766162543525 104.95340009037687 -102.80613510377557 -159.81766162543531 104.95340009037683 -191.48837200198378 -3.3644942075751690e-05 -3.3335589884468236e-05 -7.1061641729537392e-05 0.0000000000000000 2.0248905885367208e-09 2.6902235994441526e-10 8.6560945433689085e-06 9.6818555857567122e-05 -4.1774785804716152e-10 5.1935396385152729e-10 -7.9885114948588920e-10 0.0000000000000000 -99.532617471171264 -158.09468895943013 116.58484116745363 117.70414803503969 0.0000000000000000 0.0000000000000000 0.0000000000000000 0.0000000000000000 3.3855640805957234 3.7968017832943874 1.4115630475156984 1.1898621337845476 1673.2823195232418 1673.3303485736908 1.1880700570631715 
-107.75915976211014 -150.37074614680327 109.84436057060753 -107.75915976211020 -150.37074614680333 109.84436057060749 -145.82599683560264 -2.2380817919635456e-05 -5.2670752151446990e-05 -9.9471172157716821e-06 0.0000000000000000 2.1134064498440353e-09 2.3667623416656625e-10 8.2214524326218452e-06 -0.00012760235303623473 -2.2553068751177050e-10 4.1607569767333413e-10 -6.6496094444951628e-10 0.0000000000000000 -104.34256255272837 -148.85497981259945 120.89176065121424 119.29379793442074 0.0000000000000000 0.0000000000000000 0.0000000000000000 0.0000000000000000 3.3847918234201546 3.7976698269363145 1.4134036561285757 1.1913278840767281 1594.6469501136553 1594.7133819406126 1.1888440810514502 
-103.83360826689655 -164.09995413960385 114.01890776910182 -103.83360826689658 -164.09995413960397 114.01890776910189 -171.74434021875328 -1.3591064815908595e-05 -5.2703642743365191e-05 -3.7063625350372092e-05 0.0000000000000000 2.0432532332748110e-09 2.8369950832995983e-10 7.8504754021935241e-06 0.00041717019946535555 -2.9525668926449319e-10 1.8335419332618627e-10 -2.2790901217963001e-10 0.0000000000000000 -100.53040969477119 -162.28305471776312 124.56781543385799 141.51484144144280 0.0000000000000000 0.0000000000000000 0.0000000000000000 0.0000000000000000 3.3856146060618788 3.8015564774172792 1.4165833861297734 1.1908033887455223 1644.0132624045220 1644.0032618460341 1.1901904782034685 
-81.045437097858184 -150.31191391032939 74.136920101436203 -81.045437097858198 -150.31191391032939 74.136920101436203 -259.27164588852406 -9.3809140822435590e-05 -6.2145362013763268e-05 -3.4842544723146719e-05 -265.79507978108035 1.6360549581762032e-09 2.3645729818611017e-10 1.1394644555906552e-05 -3.1334124898667663e-05 -3.7625222116426326e-10 2.3365084831053993e-10 -1.6045263850934443e-10 0.00016776413628072129 -78.400527573600002 -148.79743798799998 89.448228916799977 108.06316173413846 0.0000000000000000 0.0000000000000000 0.0000000000000000 0.0000000000000000 3.4069268004741526 3.8482272460862954 1.4421364700480619 1.1956098998952711 1874.5807404878130 1874.5768696645575 1.2009626964680606 
-82.846294752964212 -164.35718579398574 72.234532344713230 -82.846294752964226 -164.35718579398571 72.234532344713230 -416.15231201658571 -4.5543853349085277e-05 -0.00013637653810431554 -6.4535180965214078e-05 -419.92084583560160 1.6682429881953453e-09 2.8455837686180985e-10 1.1563702933869989e-05 -0.00010107271630318679 2.7567443110482164e-10 8.1737017472758365e-11 1.0883930036345866e-10 -0.00031648213149458712 -80.149363288800018 -162.53464431600008 87.773009718400019 109.57810873427631 0.0000000000000000 0.0000000000000000 0.0000000000000000 0.0000000000000000 3.4087020380161088 3.8516825161245332 1.4437882337842327 1.1956098998952682 2142.3891093974703 2142.3918422568895 1.2016754728323282 
-87.115742966599925 -161.95426988527964 80.411100979201038 -87.115742966599967 -161.95426988527961 80.411100979201066 -330.64988840247548 -2.1044774387253107e-05 -7.9892268991140817e-05 -0.00013546023997694937 0.0000000000000000 1.7445290767525987e-09 2.7633118016012759e-10 1.0837080608894212e-05 -0.00011562123580296611 -4.2256569004333196e-10 -4.2382003194474238e-10 -3.2856548599358695e-10 0.0000000000000000 -84.295478612813938 -160.18443337667750 94.973195224810283 106.11323630727971 0.0000000000000000 0.0000000000000000 0.0000000000000000 0.0000000000000000 3.3655193483352277 3.7635231540899943 1.3988256594422090 1.1850498614863492 1853.5594604932533 1853.5659723621432 1.1825815414866954 
-89.359078987834309 -152.96276822805427 77.755249181254982 -89.359078987834266 -152.96276822805427 77.755249181255010 -302.67305358270931 -3.3382591627359835e-05 -0.00010840374563775404 -0.00012101630624543828 0.0000000000000000 1.7846147892797150e-09 2.4554114297359320e-10 1.1073096636948776e-05 -0.00038897747217430984 -8.6738360558439927e-10 2.8301160524083038e-10 -3.9781476116370111e-11 0.0000000000000000 -86.474010682800568 -151.39014911596544 92.634484883397832 94.367740677547317 0.0000000000000000 0.0000000000000000 0.0000000000000000 0.0000000000000000 3.3792428633096141 3.7915173389786943 1.4130940681407973 1.1876091326814728 1845.8673204268564 1845.8878579978530 1.1887333352153349 
-27.105382787579078 -133.57834094066388 130.00460644403168 -27.105382787579078 -133.57834094066385 130.00460644403168 -60.112953729609124 1.6347148917993582e-05 -2.2220250739516271e-05 0.00010698964047573976 -72.901852963162142 6.7221483934787329e-10 1.7915779970678616e-10 6.4298837187948257e-06 0.0011235166878583727 3.3043317587129203e-10 -1.1905771132322564e-10 3.0572019151874700e-10 0.00092932617204932212 -26.018656529999991 -132.43089511199997 138.64462455200004 49.421240865332216 0.0000000000000000 0.0000000000000000 0.0000000000000000 0.0000000000000000 3.3944594339247156 3.8217781762874510 1.4280943497005070 1.1966575570477735 1478.7503862108058 1478.8564050315149 1.1950328295647350 
-33.774835751564289 -135.13847883128417 128.82167551073928 -33.774835751564289 -135.13847883128423 128.82167551073920 -49.152395447117740 -5.3949591361726719e-06 1.2736503768700539e-05 2.4163496539709681e-05 38.719372780321720 7.9139139685935344e-10 1.8450507788259074e-10 6.5350065412417280e-06 0.0013987341779018402 2.4438182136735342e-10 4.9625557484437252e-10 1.1390062240188567e-09 1.4141744389068229e-05 -32.495446914399992 -133.95681332000001 137.60295016000006 48.530522504776933 0.0000000000000000 0.0000000000000000 0.0000000000000000 0.0000000000000000 3.4074036203918951 3.8515618330095269 1.4450815448652170 1.2013805084813589 1502.0651567370360 1502.0657995544100 1.2021137885029776 
-29.576308520613097 -137.67610222977649 131.89584346726571 -29.576308520613107 -137.67610222977649 131.89584346726568 -58.016020190963637 1.9219902763285703e-05 3.7079775306688731e-05 2.6693569407634524e-05 -68.415592127564054 7.1636629961346898e-10 1.9320967048486184e-10 6.2618162672833932e-06 0.0012142256546328371 3.0605398196620484e-10 1.7711809508253841e-10 4.2481575316717905e-10 0.0010969565820320121 -28.418203856399998 -136.43877710800004 140.31002455199999 44.353383947079159 0.0000000000000000 0.0000000000000000 0.0000000000000000 0.0000000000000000 3.3950558117792271 3.8228749573073295 1.4285809527105680 1.1974700535774538 1476.7351449231271 1476.8112067224563 1.1952384221776615 
-27.877393051524237 -130.58349472953660 135.91396675368568 -27.877393051524226 -130.58349472953660 135.91396675368563 -79.150305765599256 1.7676935645584991e-05 2.3120800763112674e-05 7.5773976820528552e-06 0.0000000000000000 6.8601047065186559e-10 1.6889667442399056e-10 5.9047400569056663e-06 0.00099562711041889973 1.0537754490912719e-10 5.8019896493634618e-11 1.7748522516943360e-10 0.0000000000000000 -26.768365491316434 -129.50173712462359 143.84833436668455 49.139845408488213 0.0000000000000000 0.0000000000000000 0.0000000000000000 0.0000000000000000 3.3954379057276385 3.8249607596352324 1.4303528088274531 1.1969696574098716 1532.2747117618785 1532.2606824171960 1.1959717592835692 
-41.573431236085746 -65.122012471982927 147.38931105848434 -41.573431236085746 -65.122012471982913 147.38931105848434 -134.01491085606270 4.1295832017712605e-06 -1.3040881562209215e-05 3.8657265548249432e-05 -137.75819281085390 9.3074137286208735e-10 -5.5279336663716094e-11 4.8849674065820636e-06 0.00022269062443508616 -1.8746587272298354e-10 9.6123710137223754e-11 -3.9875013451838180e-11 0.00020849486695364531 -40.068761925200000 -65.476070995999990 153.95338104800004 156.95717166164070 0.0000000000000000 0.0000000000000000 0.0000000000000000 0.0000000000000000 3.3943084015446257 3.8221470964448994 1.4286482318884974 1.1946251366443725 1608.0370504790774 1608.0356510919516 1.1952628249143440 
-54.299035745213544 -59.171193948256295 142.06381454950014 -54.299035745213551 -59.171193948256281 142.06381454950017 -131.65324558792940 -2.1470592627477798e-05 5.2014001487289868e-07 1.4169004460292498e-05 -134.67994262626732 1.1581330339183182e-09 -7.5663919574253681e-11 5.3582251595685201e-06 9.1963892482814459e-05 -2.2664594092683608e-11 -5.3405850028497805e-12 1.5557896831876184e-11 0.00011951765780487886 -52.426757905599978 -59.655776269200025 149.26381449600007 118.05125250056595 0.0000000000000000 0.0000000000000000 0.0000000000000000 0.0000000000000000 3.3961076604765004 3.8260790050964864 1.4307914226820306 1.1946129784564630 1609.6159608966841 1609.6124093123203 1.1961588026131695 
-36.531951774874564 -65.688128698324107 137.22133997624994 -36.531951774874571 -65.688128698324121 137.22133997624994 -118.60554897923443 8.9551853911083096e-06 -7.6893948523455225e-06 -3.6484040359923808e-06 -117.25370861421271 8.4065743255479209e-10 -5.3348214734683097e-11 5.7885585071915102e-06 0.00021479805958019273 -1.0765320697963165e-10 1.1176104888821001e-10 -1.2207811706952941e-10 0.00023444152424524284 -35.172917262399999 -66.029770167599992 144.99959110400002 155.12084301790807 0.0000000000000000 0.0000000000000000 0.0000000000000000 0.0000000000000000 3.3954853826614548 3.8241813629420043 1.4294822145634039 1.1953243349598379 1584.1916009021468 1584.1934278093363 1.1956095266052758 
-52.225198497359479 -66.261053102808958 134.04605078343593 -52.225198497359465 -66.261053102808987 134.04605078343593 -120.42935171155925 -1.4799396597353554e-05 1.6008007890940170e-05 5.4892232436346653e-06 0.0000000000000000 1.1210780082038241e-09 -5.1381121579652251e-11 6.0707350648669936e-06 9.3847484823557316e-05 -9.5447023863412737e-11 1.2125034185440732e-11 -7.5945218565191276e-11 0.0000000000000000 -50.412828244765279 -66.590128188430739 142.20347059834828 136.07757377940416 0.0000000000000000 0.0000000000000000 0.0000000000000000 0.0000000000000000 3.3887141445556206 3.8083025956061363 1.4202501523883990 1.1930053823212523 1563.4359588236546 1563.4295103736761 1.1917398580166638 
-97.685309579585791 -160.45367395680563 60.712518768272261 -97.685309579585777 -160.45367395680566 60.712518768272268 -561.05561941081191 -4.1511556587683382e-05 -2.8077116633177108e-05 -7.0901836549283341e-05 -561.05586989082178 1.9333895595607942e-09 2.7120994339213672e-10 1.2587622940429808e-05 -0.00064416721748016817 -4.8030094284036073e-10 5.5753634904791842e-10 -2.0488154620292808e-10 -0.00052572172161885629 -94.559718839999974 -158.71675115199997 77.626866652000004 109.98746742214213 0.0000000000000000 0.0000000000000000 0.0000000000000000 0.0000000000000000 3.3948078685538499 3.8229507648411336 1.4289379937092657 1.1956098998952684 2352.1894853759795 2353.7174205049305 1.1953793897799083 
-92.662638747956507 -160.19771383412575 66.176468957253377 -92.662638747956478 -160.19771383412578 66.176468957253391 -483.08635120331900 -9.2110630950952154e-05 -7.7518889303990229e-05 -0.00011049409201536216 -460.84978084100044 1.8436435711421948e-09 2.7032842631058429e-10 1.2102061294427813e-05 -0.00045179263801882697 -4.5502736641305209e-10 5.8677440393743585e-10 -1.1460727578253632e-10 -0.00035500848608862717 -89.682139475999989 -158.46640519600001 82.438353807199988 112.88451412247700 0.0000000000000000 0.0000000000000000 0.0000000000000000 0.0000000000000000 3.3976085702920424 3.8281628824958394 1.4313207284079847 1.1956098998952684 2214.8994585411992 2214.7236386008258 1.1963715528384793 
-106.07789662967940 -156.59635598114320 70.912660893626494 -106.07789662967936 -156.59635598114315 70.912660893626494 -470.21128229169244 -2.0004460552605215e-05 3.3722732595149466e-07 -0.00014300670783486244 0.0000000000000000 2.0833647029760986e-09 2.5798718716885110e-10 1.1681172892963330e-05 -0.00097956402011089910 -3.7845857238703159e-10 5.6360565078577013e-10 -1.9833985263925653e-10 0.0000000000000000 -102.70986659571734 -154.94403864466588 86.608986019839278 111.02505284862640 0.0000000000000000 0.0000000000000000 0.0000000000000000 0.0000000000000000 3.3966225533472252 3.8269341908085126 1.4311115114250079 1.1934509769964627 2206.9001667005723 2206.8183957063743 1.1963081955555666 
-103.70659415237735 -169.10049330277303 67.575218206573055 -103.70659415237739 -169.10049330277306 67.575218206573041 -516.97680568464989 -8.2551848873312001e-06 -1.4588938627370911e-05 -0.00013922199358078105 0.0000000000000000 2.0409892664829954e-09 3.0080982149627289e-10 1.1977759456271999e-05 -0.00041718162078645710 -3.1116629175517338e-10 3.2068731530966916e-10 -3.5572049100446409e-11 0.0000000000000000 -100.40706467681501 -167.17391327890167 83.670075146830683 105.53983917324770 0.0000000000000000 0.0000000000000000 0.0000000000000000 0.0000000000000000 3.3946534819353933 3.8225998128338996 1.4287355224666221 1.1939179733932406 2264.4959820500876 2264.1118799143460 1.1952982416231770 
-118.34649924978720 -100.22165998116208 82.227011761087724 -118.34649924978724 -100.22165998116205 82.227011761087724 -306.55597456322914 -1.9431005224678956e-05 -2.9122039693738117e-05 -8.4174520412949426e-05 -316.93565628101345 2.3025817886962269e-09 6.4929617238362893e-11 1.0675707137863809e-05 -0.0031464125671252135 -5.6759394676821167e-11 -4.5205050227544536e-11 -2.4527729937595848e-10 -0.0031255933784488424 -114.62406224400000 -99.805851428000011 96.572263865600007 85.211636250682801 0.0000000000000000 0.0000000000000000 0.0000000000000000 0.0000000000000000 3.3971400060578891 3.8284050944780978 1.4320062509003733 1.1892278326794725 1913.8569626410792 1914.0139965630372 1.1966320953053080 
-114.70480021971912 -91.318163412316295 86.370840683111027 -114.70480021971912 -91.318163412316295 86.370840683111041 -263.26396863344854 -5.5981683054117594e-06 2.9165621123976205e-06 -8.9491875296545965e-05 -260.83192492905448 2.2375049590905860e-09 3.4437119822428031e-11 1.0307459930913863e-05 -0.0030923652950294056 6.8421974866101331e-11 2.5804876952159508e-10 -5.2278681722090580e-10 -0.0029363190384972325 -111.08756211600000 -91.097641973600034 100.22126851279998 99.535403830130534 0.0000000000000000 0.0000000000000000 0.0000000000000000 0.0000000000000000 3.4068174892626146 3.8480923030477130 1.4421110652638804 1.1931887624277961 1870.1366396572300 1870.1392850172090 1.2008922485341036 
-116.57562938457319 -98.023397285255484 95.643674152352588 -116.57562938457319 -98.023397285255456 95.643674152352574 -190.17938581901009 -1.2821590568045086e-05 -1.2358762760968093e-05 -0.00011241881825747624 -192.70061629754628 2.2709470970383446e-09 5.7392091079577767e-11 9.4834164769963536e-06 -0.0027225473322021587 -3.7733824400543399e-11 9.5073622570918881e-11 -6.8618290290142647e-10 -0.0027263571047733922 -112.90434805199999 -97.655804887999992 108.38681131359999 128.09762094244454 0.0000000000000000 0.0000000000000000 0.0000000000000000 0.0000000000000000 3.3964784660598308 3.8277979640777762 1.4321825485654689 1.1941802315300154 1722.9566281219895 1722.9355378679172 1.1967175690025516 
-110.65491407204338 -104.34750513819364 86.744337279822346 -110.65491407204344 -104.34750513819367 86.744337279822361 -253.04955043812967 -9.1749663829419851e-05 -1.3854617583130736e-05 -9.7436101999078719e-05 0.0000000000000000 2.1651441750591971e-09 7.9057427271322922e-11 1.0274268632315398e-05 -0.0031147454150693204 1.9925619691238173e-10 -1.5926765242072652e-10 -3.3198607401187408e-10 0.0000000000000000 -107.15466629968294 -103.84120130723400 100.55016500991876 102.24201981555134 0.0000000000000000 0.0000000000000000 0.0000000000000000 0.0000000000000000 3.3808352675433850 3.7875610553983603 1.4071719872655273 1.1858330875693683 1761.2668339652423 1761.3278356076576 1.1862123579482169 
-27.991386655598589 -116.13983846823456 89.835360409640600 -27.991386655598600 -116.13983846823463 89.835360409640558 -5.4226581451340961 2.2938606281056378e-05 2.5437591914497292e-06 -2.8411750038749560e-05 0.0000000000000000 -6.9565830363307434e-07 2.3273977672037838e-06 8.2317506246708350e-06 0.0011654080902309832 -5.8542545245253862e-10 -9.3986643102874985e-10 1.0644959135519042e-09 0.0000000000000000 -26.889884864405381 -115.37486796036181 103.37575244326078 96.382960025775517 0.0000000000000000 0.0000000000000000 0.0000000000000000 0.0000000000000000 3.4229252129439423 3.8849401356852415 1.4630151991281719 1.2079380943358520 1448.4787963691845 1448.4325241589611 1.2095491189580871 
-113.14038038529579 -104.12315638430530 145.39526639066730 -113.14038038529583 -104.12315638430529 145.39526639066727 -114.58723778850235 -2.7140409075412130e-06 -7.8209763801673242e-06 -1.8179945982393115e-06 -114.58961602765542 2.2095575369363019e-09 7.8289152938282301e-11 5.0621709917209046e-06 0.00023513647975067568 1.4346892760583886e-11 2.3938140607360592e-11 6.6109506849419652e-11 0.00026100747559694096 -109.56833416800004 -103.62177336400003 152.19744990400002 70.302883591683823 0.0000000000000000 0.0000000000000000 0.0000000000000000 0.0000000000000000 3.3933705955017626 3.8190912450910037 1.4264667372626010 1.1945105277366124 1569.8372932877198 1569.8460594576720 1.1943488740043429 