# For a description of the Tecplot format see the Tecplot User's guide.
#
Variables=x,y,z,s_u,s_v,s_w,s_p,mono_f_vel_u,mono_f_vel_v,mono_f_vel_w,const,u_nu,v_nu,w_nu,p_nu,x_nu,y_nu,z_nu,const,u_ref,v_ref,w_ref,vol_ref,x_ref,y_ref,z_ref,const,I1,I2,I3,J,p1,p2,p3
Zone f=fepoint, n=3174, e=16683, et=brick, c=black
-24.9573 -154.245 111.672 -24.957329177576646 -154.24487492072845 111.67191713463650 -80.271074492883173 -3.5933576934441078e-06 -1.5491915641497446e-05 -1.4847702135694023e-05 -79.199749391098052 4.9459807777152420e-11 3.3829078427416448e-11 3.6875398734537157e-08 0.00018593125554844240 -1.0096503692305142e-12 -4.7256411103128318e-12 6.7793624365060218e-12 0.00018418309342630248 -24.903554063199991 -154.16086777200002 112.24023381839994 89.724962256112903 0.0000000000000000 0.0000000000000000 0.0000000000000000 0.0000000000000000 3.0185326623187603 3.0371196238489002 1.0185868565209864 1.0096776524662139 176.89364362636658 176.89220855083533 1.0092500873613621 
-37.520851241556201 -155.23572611083213 114.36978628612798 -37.520851241556208 -155.23572611083219 114.36978628612802 -73.211021168210294 1.2280692486213956e-05 -1.4613166804369974e-05 -7.9175944275147305e-06 0.0000000000000000 4.7063425137882290e-09 -5.7814050893599947e-09 -1.2337630564273966e-08 0.00018957032720563833 7.2604242720990925e-12 -1.4719925776197078e-11 1.0603390331178287e-11 0.0000000000000000 -37.438273663334591 -155.10473791080037 114.93291110338620 89.036758072416930 0.0000000000000000 0.0000000000000000 0.0000000000000000 0.0000000000000000 3.0270656221923713 3.0543351735361925 1.0272699164634889 1.0128122772221222 182.54697308649511 182.54724556962989 1.0135448316233033 
-31.606474869162255 -147.95584105502934 119.34109595446958 -31.606474869162266 -147.95584105502934 119.34109595446954 -68.481367847526272 4.2381274788019395e-06 -1.0911641467361280e-05 -1.0962678419576382e-06 0.0000000000000000 5.8731828428415511e-11 3.0901309289177448e-11 3.3756937689588546e-08 0.00018529536090051819 2.8659479746329584e-12 -4.0340795554191307e-12 3.6371151272484726e-12 0.0000000000000000 -31.542619574254449 -147.87907313389167 119.86135157363466 98.260374494724786 0.0000000000000000 0.0000000000000000 0.0000000000000000 0.0000000000000000 3.0221969213176343 3.0445168799694167 1.0223200516668891 1.0114944120806393 167.01548172435588 167.01413416159548 1.0110963594607725 
-28.707115610965115 -143.03848920508469 111.55547453506686 -28.707115610965129 -143.03848920508469 111.55547453506686 -67.427510101169062 5.6266251508709697e-06 -1.2530037041306995e-05 -9.0868297614942478e-06 0.0000000000000000 5.4688902711985676e-11 2.8636842897000747e-11 3.6922751078805049e-08 0.00019185282500275375 1.6816154893866401e-11 -2.4187560427367858e-12 5.6291494719292659e-12 0.0000000000000000 -28.647655777685479 -142.96738158566356 112.12452093910819 112.69127588814607 0.0000000000000000 0.0000000000000000 0.0000000000000000 0.0000000000000000 3.0235298346988491 3.0472140496245390 1.0236844896758310 1.0115641635285357 166.94888138088965 166.94975994883276 1.0117727912211871 
-24.314661018534423 -200.56949052168693 72.915350883982171 -24.314661018534423 -200.56949052168693 72.915350883982171 -147.47974693305085 3.4848107989172183e-07 -6.8040598458032364e-09 3.0587514202182019e-07 -147.95151143470460 4.8565127613864328e-11 5.5298238210710351e-11 5.2634660852035615e-08 0.00019330339874710969 4.6508527078677169e-13 2.2432423762142639e-14 7.3574093763892016e-14 0.00019325547262604261 -24.261860196399997 -200.43215969199997 73.726546483199982 142.71380061529433 0.0000000000000000 0.0000000000000000 0.0000000000000000 0.0000000000000000 3.0180189558155712 3.0361128223720191 1.0180939557226820 1.0089956315221920 295.10772318685412 295.10772371339357 1.0090064253842745 
-24.210039978246829 -187.76166561191408 74.508671625834836 -24.210039978246833 -187.76166561191411 74.508671625834836 -145.85196627672690 1.9295617884511691e-06 -2.8281494277708914e-06 -8.7357967396437035e-07 -146.34826436545976 4.8416121806171843e-11 4.9351966957544859e-11 5.1986791982372438e-08 0.00019316281888640520 2.2044764743389974e-13 2.6381539880607773e-13 2.2589971375345193e-13 0.00019317700220245602 -24.157397762799999 -187.63907770800003 75.309882232799993 165.73632395326644 0.0000000000000000 0.0000000000000000 0.0000000000000000 0.0000000000000000 3.0180200230391856 3.0361144737886754 1.0180945382080731 1.0089956315221904 292.38880466718723 292.38880418486116 1.0090066890006606 
-34.954473171613955 -195.54287369019028 80.835114949025908 -34.954473171613934 -195.54287369019036 80.835114949025879 -145.13241487120027 6.3737735349701134e-07 -2.2292641987847607e-06 -4.5215925937497688e-06 0.0000000000000000 6.3400406452585032e-11 5.2958304408434742e-11 4.9414319303053838e-08 0.00019357708437391227 5.0156678289470144e-13 2.1545655489889011e-13 2.3128902990534735e-13 0.0000000000000000 -34.885542273181727 -195.41132893576267 81.596679120775832 139.46796289390394 0.0000000000000000 0.0000000000000000 0.0000000000000000 0.0000000000000000 3.0178677569230543 3.0358097285896819 1.0179420610699690 1.0088338724037944 290.83500045495362 290.83499894339548 1.0089311261817384 
-18.867143284247476 -194.66022875465347 80.650232207088877 -18.867143284247490 -194.66022875465356 80.650232207088877 -146.59991124308334 9.5746055618572299e-07 -1.3776193556189324e-06 -2.0970759785492612e-06 0.0000000000000000 4.0966594699876069e-11 5.2552462381783023e-11 4.9489492948140423e-08 0.00019285998632337847 1.8892351970666003e-13 2.4292872995513961e-13 2.4898936327352410e-13 0.0000000000000000 -18.822600960987238 -194.52970000168264 81.412954998504986 111.95285379220412 0.0000000000000000 0.0000000000000000 0.0000000000000000 0.0000000000000000 3.0180512799262931 3.0361773674447550 1.0181261763377585 1.0089956315221926 294.54158006988916 294.54157994649438 1.0090224065505387 
-22.714356816754162 -103.23319760212132 42.235220289757699 -22.714356816754162 -103.23319760212132 42.235220289757699 -148.51331821542439 -3.2464403897413832e-06 3.6987895246605139e-06 -4.9963066486528891e-06 -149.45611972335880 4.6332052777708916e-11 1.0181411269627459e-11 6.5109880598157588e-08 0.00019072629512226888 5.1854390394748376e-13 -1.0662959329871818e-12 1.4654097406174020e-12 0.00019100490392795768 -22.663982073999996 -103.20790935200000 43.238681550399988 69.202643319072678 0.0000000000000000 0.0000000000000000 0.0000000000000000 0.0000000000000000 3.0179837965038518 3.0360421494413581 1.0180584414928211 1.0089956315221913 297.11968246645080 297.11968169262178 1.0089888374888478 
-30.213404070124266 -110.80711343314263 46.008943831386134 -30.213404070124270 -110.80711343314262 46.008943831386141 -145.78284099451727 2.2772019908102684e-07 5.9336072217609965e-06 -6.7329169252644173e-06 -144.72012201568535 5.6790103869497344e-11 1.3688411515389019e-11 6.3575403164151099e-08 0.00019005546963796587 3.8385552306136575e-13 -1.6252274314895819e-12 1.8694843773181659e-12 0.00019003118089995478 -30.151660686400003 -110.77310694400001 46.988755992800002 74.715282964229786 0.0000000000000000 0.0000000000000000 0.0000000000000000 0.0000000000000000 3.0180790140581659 3.0362329328215600 1.0181540075275672 1.0089956315221922 291.94313586011066 291.94314336965925 1.0090362256233567 
-18.779559859792126 -103.59275044686768 49.047650048363323 -18.779559859792126 -103.59275044686773 49.047650048363323 -143.75261543584119 -3.9431275277580674e-06 3.0900437819127660e-06 -7.2058395642671394e-06 -143.92025404147395 4.0846111215575576e-11 1.0353884416502979e-11 6.2339799766775172e-08 0.00018961223188625564 7.5537340860487606e-13 -1.1220925846584264e-12 1.6581882919419240e-12 0.00018958670006644820 -18.735150314000002 -103.56704831999998 50.008419303199993 79.719497061372692 0.0000000000000000 0.0000000000000000 0.0000000000000000 0.0000000000000000 3.0179915005758287 3.0360575465549808 1.0180661344485691 1.0089956315221920 288.63078068184689 288.63076992002738 1.0089926322713041 
-25.546547608374802 -98.507437671827574 50.027609899582153 -25.546547608374798 -98.507437671827574 50.027609899582131 -145.35011152128456 -1.9987373495843616e-08 1.5325401882909472e-06 -1.0986630024056716e-05 0.0000000000000000 5.0282483038399655e-11 7.9980050360362043e-12 6.1941327622605513e-08 0.00019013474331997898 2.6915381080472812e-13 -7.7310050406654105e-13 2.0443934499493565e-12 0.0000000000000000 -25.491879232152165 -98.487589184379729 50.982237960580505 72.292163684038698 0.0000000000000000 0.0000000000000000 0.0000000000000000 0.0000000000000000 3.0179717855690171 3.0360183751919347 1.0180466789315821 1.0089956315221913 291.10168068781695 291.10168152789441 1.0089829702929469 
-25.355231859708294 -104.24367762631854 108.16105304296323 -25.355231859708287 -104.24367762631849 108.16105304296329 -68.074836796186489 4.0088836889440783e-06 1.3643430145768904e-05 -3.6074201218646898e-06 0.0000000000000000 3.0077715327872337e-08 1.1994789534410659e-08 5.7638906263259879e-08 0.00017797424367523910 -1.2504617509575996e-11 1.1590171688431895e-12 4.1649663788653072e-11 0.0000000000000000 -25.283559732051039 -104.23282252886388 108.75695162467670 96.378087069502698 0.0000000000000000 0.0000000000000000 0.0000000000000000 0.0000000000000000 3.0222062307868742 3.0445097845430893 1.0223033968236903 1.0118284687274257 163.73951548089244 163.73430680288820 1.0110877501595859 
-25.989465841242041 -118.03544563013216 110.07690028558964 -25.989465841242037 -118.03544563013212 110.07690028558957 -57.629692226018122 7.5087304604848939e-06 2.4337717708088048e-06 -5.5343352439483404e-06 0.0000000000000000 2.5619541123750067e-08 5.4649588078456681e-09 7.1863123073138882e-08 0.00018398926532661635 -1.2278388076416128e-11 1.9371682261461654e-11 3.1874650181586893e-11 0.0000000000000000 -25.913646985361510 -118.01095136745833 110.66456878241424 88.846747377876298 0.0000000000000000 0.0000000000000000 0.0000000000000000 0.0000000000000000 3.0314387377347272 3.0631264360758208 1.0316881030698077 1.0144936468888006 163.64964235481878 163.63088365266270 1.0157230918036262 
-36.353973104043732 -112.71161986376984 111.46653656838889 -36.353973104043718 -112.71161986376988 111.46653656838895 -58.276645092311504 -2.9812292396804637e-06 1.0586991344231841e-05 7.1257120034354019e-06 0.0000000000000000 4.4516178088076779e-08 9.6902651356034860e-09 8.4334868748112368e-08 0.00017573826222791144 6.0142532674857088e-12 3.7423589031608805e-12 -5.5198437800473949e-12 0.0000000000000000 -36.236867317722961 -112.72601430119678 112.03758904139967 95.996160021407249 0.0000000000000000 0.0000000000000000 0.0000000000000000 0.0000000000000000 3.0326011520927536 3.0654726899057745 1.0328720886461396 1.0154740361217940 167.06050622803622 167.06435816870970 1.0163035781333809 
-33.478577081485902 -105.07539679405048 104.99856837980617 -33.478577081485916 -105.07539679405046 104.99856837980620 -67.867669781616286 6.1690919964841430e-07 1.5858441729427392e-05 -6.2675541321915980e-06 0.0000000000000000 5.3530005743571772e-08 2.2338326059336457e-08 8.2844609298616313e-08 0.00018142777462396063 -1.1164896802284293e-11 -9.9061574503915590e-14 2.9224109579152125e-11 0.0000000000000000 -33.380789828628046 -105.09637623893835 105.63342596379557 85.433794965156210 0.0000000000000000 0.0000000000000000 0.0000000000000000 0.0000000000000000 3.0276402883489042 3.0554427600173466 1.0278024923823077 1.0131865292904638 171.21824022178131 171.21467334170814 1.0138055105049633 
-112.40577027418216 -160.75498045312759 124.17430407314762 -112.40577027418219 -160.75498045312762 124.17430407314761 -111.14010982163400 4.6903252214562206e-07 -1.4933583377415021e-06 -4.1863555999049326e-06 -110.93232723567714 1.7139764260654111e-10 3.6833452954354584e-11 3.1791647758794284e-08 0.00018486908288988557 -1.5405660431984299e-13 3.4426461468855892e-13 2.5133114990579140e-12 0.00018475332472537543 -112.21942232800005 -160.66347960400000 124.66427103520003 147.55923210393107 0.0000000000000000 0.0000000000000000 0.0000000000000000 0.0000000000000000 3.0196708831028007 3.0394457548402714 1.0197750252991058 1.0089956315221940 235.30608669778454 235.30609108193025 1.0098410996289657 
-99.699702874589278 -158.18322949845839 116.04392288654439 -99.699702874589249 -158.18322949845839 116.04392288654437 -112.82580200235880 -4.0342240643583571e-06 -2.7023266456771011e-06 -8.3768812118868714e-06 0.0000000000000000 1.5367748393280148e-10 3.5660890906896725e-11 3.5097639461412200e-08 0.00018636581765900842 -1.5211147745613311e-14 -1.2115298926595135e-12 -6.3264435812090747e-13 0.0000000000000000 -99.532617471171264 -158.09468895943013 116.58484116745363 117.70414803503969 0.0000000000000000 0.0000000000000000 0.0000000000000000 0.0000000000000000 3.0138374070003793 3.0276394309658392 1.0138017849474181 1.0072762857908386 225.91822531794492 225.91822000208774 1.0068756551440634 
-104.51695095905939 -148.93287238217940 120.37800310212648 -104.51695095905944 -148.93287238217945 120.37800310212650 -109.36415059546692 -3.5257743442853843e-06 -2.8945314889656293e-06 -3.9431604586317182e-06 0.0000000000000000 1.6038861558320683e-10 3.1374847164755693e-11 3.3335308291526644e-08 0.00018522998115364102 -1.4514255916341676e-12 8.4443872631156893e-13 5.1035022543505971e-13 0.0000000000000000 -104.34256255272837 -148.85497981259945 120.89176065121424 119.29379793442074 0.0000000000000000 0.0000000000000000 0.0000000000000000 0.0000000000000000 3.0141988261033883 3.0284020479781617 1.0142031794934392 1.0073837712158644 220.72827298917187 220.72825315226666 1.0070745085113364 
-100.69901005925269 -162.37642198779818 124.07724019372418 -100.69901005925264 -162.37642198779818 124.07724019372424 -110.14106838961101 -2.4145605480423971e-06 -4.2541289731332438e-06 -3.7120240211235999e-06 0.0000000000000000 1.5506912073859347e-10 3.7580660805502937e-11 3.1831116631408918e-08 0.00018494027980930610 -1.2311783200781195e-12 -2.9099020929867494e-13 2.2405850466735019e-12 0.0000000000000000 -100.53040969477119 -162.28305471776312 124.56781543385799 141.51484144144280 0.0000000000000000 0.0000000000000000 0.0000000000000000 0.0000000000000000 3.0146296155823076 3.0292871038255655 1.0146574673870423 1.0075175755225645 222.81928442646765 222.81928675159818 1.0073006045801842 
-78.535527846842271 -148.87526424558033 88.736178983520531 -78.535527846842257 -148.87526424558035 88.736178983520546 -113.86979222534728 -1.0082876925320622e-05 -6.8220456623662493e-06 -3.3808697620089048e-06 -113.81344210442852 1.2417293235311710e-10 3.1346591988778982e-11 4.6201570791382103e-08 0.00018969049112460597 1.2338811719153116e-13 1.6407079215992711e-12 3.8161349519888911e-13 0.00019112121765738329 -78.400527573600002 -148.79743798799998 89.448228916799977 108.06316173413846 0.0000000000000000 0.0000000000000000 0.0000000000000000 0.0000000000000000 3.0192021732534680 3.0384913721008933 1.0192893313991769 1.0089956315221931 239.23284690423620 239.23257353278464 1.0095997608144049 
-80.287018842322183 -162.62830152139048 87.050395348157807 -80.287018842322169 -162.62830152139048 87.050395348157807 -129.18897596577312 -5.9653978768901723e-06 -1.0882852325321253e-05 -6.1323682932374352e-06 -129.68965400677573 1.2660187828639202e-10 3.7722963641684260e-11 4.6887041138532481e-08 0.00019154890341302567 -1.4071758517524382e-12 2.3244736695877219e-12 2.7203523360062763e-13 0.00019211560639185058 -80.149363288800018 -162.53464431600008 87.773009718400019 109.57810873427631 0.0000000000000000 0.0000000000000000 0.0000000000000000 0.0000000000000000 3.0194492975428493 3.0389808519968891 1.0195316552129194 1.0089956315221928 266.67480456673047 266.67486500680531 1.0097204000556546 
-84.439429267792747 -160.27538216626377 94.295987393590067 -84.439429267792733 -160.27538216626371 94.295987393590124 -122.31459909779737 -4.5757975964148213e-06 -7.5737882197211875e-06 -1.1381706135755676e-05 0.0000000000000000 1.3239797799768913e-10 3.6626507382564455e-11 4.3940836302880377e-08 0.00019087005036789393 5.7016837469804692e-13 5.0585673640755438e-13 2.3909377723939730e-12 0.0000000000000000 -84.295478612813938 -160.18443337667750 94.973195224810283 106.11323630727971 0.0000000000000000 0.0000000000000000 0.0000000000000000 0.0000000000000000 3.0145120710378324 3.0290751928759554 1.0145631520061797 1.0075955855550367 243.19861158042767 243.19865517361566 1.0072530022859392 
-86.621269031689252 -151.47096324994320 91.942528440175380 -86.621269031689266 -151.47096324994311 91.942528440175408 -119.73118373712835 -5.0670408699906176e-06 -9.8256945435304188e-06 -1.1036976674697171e-05 0.0000000000000000 1.3543715801644929e-10 3.2526564774926214e-11 4.4897800144383382e-08 0.00019029880264786201 8.9646988793027624e-13 2.6396828163091960e-13 1.0849353149323835e-12 0.0000000000000000 -86.474010682800568 -151.39014911596544 92.634484883397832 94.367740677547317 0.0000000000000000 0.0000000000000000 0.0000000000000000 0.0000000000000000 3.0163517337188499 3.0327701495614767 1.0164185052507051 1.0079064445408736 241.82737309449121 241.82714883713831 1.0081757768911561 
-26.074124719126004 -132.48986033772886 138.24282191112195 -26.074124719126015 -132.48986033772889 138.24282191112201 -81.231211320877492 4.1486202297878982e-06 -3.6450217964284506e-06 1.6815015107583957e-05 -83.916408598681301 5.1017922525486981e-11 2.3746782318312398e-11 2.6071081737910617e-08 0.00016642604336470379 2.8601907742923504e-12 -1.7151310458440933e-12 6.3062383619960280e-12 0.00016429639163736872 -26.018656529999991 -132.43089511199997 138.64462455200004 49.421240865332216 0.0000000000000000 0.0000000000000000 0.0000000000000000 0.0000000000000000 3.0178289222253101 3.0357307216456819 1.0179019078004967 1.0097666858989380 179.13853520699692 179.14267919751927 1.0089125997710351 
-32.560748899596916 -134.01753703511429 137.19457840657807 -32.560748899596895 -134.01753703511437 137.19457840657802 -79.251008902251030 -7.6152007132686694e-07 2.0853427106320804e-06 1.0670319744067733e-05 -72.791330182798234 6.0059426182368369e-11 2.4447277535699641e-11 2.6497322780372204e-08 0.00016787110373500764 1.1177274359655433e-12 2.5613527971800199e-12 1.4430654306967977e-11 0.00015592852367395918 -32.495446914399992 -133.95681332000001 137.60295016000006 48.530522504776933 0.0000000000000000 0.0000000000000000 0.0000000000000000 0.0000000000000000 3.0233823895895586 3.0468955379171079 1.0235133320616148 1.0117426910356966 187.84162812979088 187.84166182804478 1.0116850553984635 
-28.477315309808130 -136.50236107273540 139.91872442526136 -28.477315309808137 -136.50236107273537 139.91872442526139 -82.133787159314309 5.5274766665819022e-06 2.2832733303865823e-06 5.2244844713097640e-06 -84.888566336830962 5.4367562535295733e-11 2.5596441632913525e-11 2.5389635727179893e-08 0.00016550073164341953 4.1271231904284457e-12 -8.1233420320837039e-13 3.4192082644708799e-12 0.00016321000653623903 -28.418203856399998 -136.43877710800004 140.31002455199999 44.353383947079159 0.0000000000000000 0.0000000000000000 0.0000000000000000 0.0000000000000000 3.0191449657904430 3.0383671830584880 1.0192222910992523 1.0104109976686200 184.18229878591197 184.17351248649189 1.0095642367697162 
-26.824971973424070 -129.55732674791057 143.47934788763317 -26.824971973424066 -129.55732674791051 143.47934788763317 -85.203446816392571 1.5412235947287217e-06 1.9019021512455653e-06 3.6783671313966148e-06 0.0000000000000000 5.2063135053126424e-11 2.2376378527866340e-11 2.3941802762550424e-08 0.00016424449287614953 -5.2443556501579248e-13 -6.1304766743090922e-13 3.1306166856123487e-12 0.0000000000000000 -26.768365491316434 -129.50173712462359 143.84833436668455 49.139845408488213 0.0000000000000000 0.0000000000000000 0.0000000000000000 0.0000000000000000 3.0193815672999591 3.0388619937789816 1.0194805549808781 1.0103927169477236 190.89039805846880 190.89946760659595 1.0096925013603353 
-40.145562574237630 -65.457876550329118 153.64812003769458 -40.145562574237616 -65.457876550329132 153.64812003769458 -105.69318192757422 -1.9209167213477842e-06 -2.8760553771849454e-08 3.0077534197509603e-06 -106.22952071986430 7.0640177735059595e-11 -7.3266670508331815e-12 1.9806941864430883e-08 0.00017415375761706080 2.2284776796749357e-12 -1.0948333798180096e-12 -4.3300937935094496e-13 0.00017434192875039520 -40.068761925200000 -65.476070995999990 153.95338104800004 156.95717166164070 0.0000000000000000 0.0000000000000000 0.0000000000000000 0.0000000000000000 3.0173971357560911 3.0348683081171122 1.0174712782991426 1.0086799112331020 220.99189858412728 220.99219760930239 1.0086979300097563 
-52.522321862557718 -59.630874434860750 148.92897966617977 -52.522321862557725 -59.630874434860750 148.92897966617971 -106.74087389631642 -1.8464454607199667e-06 -5.5650984466793145e-07 2.5355453143448432e-06 -106.97108330467826 8.7894979489133731e-11 -1.0029713171100241e-11 2.1725857335397336e-08 0.00017598934591954202 1.2045671066495401e-12 -1.3895337401105886e-14 -7.7692143012723076e-13 0.00017585048221397789 -52.426757905599978 -59.655776269200025 149.26381449600007 118.05125250056595 0.0000000000000000 0.0000000000000000 0.0000000000000000 0.0000000000000000 3.0184605318256885 3.0370057420052126 1.0185453251147489 1.0087406726729722 225.13904609486585 225.13901509021812 1.0092303233846498 
-35.242284486060022 -66.012213812562621 144.63786479677617 -35.242284486060029 -66.012213812562635 144.63786479677623 -103.70829447298775 -6.6263079089279867e-07 3.6162892291430314e-07 4.0446045297077986e-07 -103.67182841393416 6.3797678945265446e-11 -7.0743411129114967e-12 2.3470720034168838e-08 0.00017374785367009124 1.2604013384673103e-12 -1.4252956521428842e-12 1.5637400457264673e-12 0.00017304956926428159 -35.172917262399999 -66.029770167599992 144.99959110400002 155.12084301790807 0.0000000000000000 0.0000000000000000 0.0000000000000000 0.0000000000000000 3.0183043696648406 3.0366825612219306 1.0183782808004906 1.0089728226529922 219.72170542163516 219.72184341245324 1.0091473621714717 
-50.505334425816983 -66.573217597777372 141.82411111282130 -50.505334425816962 -66.573217597777344 141.82411111282133 -105.04628596068368 -1.9113858793506333e-06 8.2966049976838884e-07 1.6457232983642250e-06 0.0000000000000000 8.5083311923694893e-11 -6.8149097476322140e-12 2.4614860816285497e-08 0.00017568600550101648 1.9479589070915667e-12 -3.8462201123566689e-13 9.6504232736565337e-13 0.0000000000000000 -50.412828244765279 -66.590128188430739 142.20347059834828 136.07757377940416 0.0000000000000000 0.0000000000000000 0.0000000000000000 0.0000000000000000 3.0159761575885398 3.0319893858955123 1.0160131997596267 1.0081830586120073 216.91885160112190 216.91880475602127 1.0079743480587775 
-94.719253825986314 -158.80600856415879 76.840267646826220 -94.719253825986314 -158.80600856415873 76.840267646826206 -144.04404417809445 -2.4675758617218037e-06 -3.1156353689239641e-06 -4.6704275333268319e-06 -144.02012501464722 1.4673817369525999e-10 3.5929426100977935e-11 5.1038714143913921e-08 0.00019131851700872283 5.6391713087717391e-15 2.5029233785134514e-13 4.9688719180170240e-13 0.00019144090920830123 -94.559718839999974 -158.71675115199997 77.626866652000004 109.98746742214213 0.0000000000000000 0.0000000000000000 0.0000000000000000 0.0000000000000000 3.0179108699807133 3.0358959046310967 1.0179851235109418 1.0089956315221917 289.07056947998183 289.07053619023236 1.0089524222797477 
-89.834268769052230 -158.55537410599399 81.682097489596131 -89.834268769052201 -158.55537410599396 81.682097489596131 -137.27129945941235 -8.7844554292936421e-06 -7.3658212688853183e-06 -9.6982120503117624e-06 -134.92362901882046 1.3992401334816940e-10 3.5823594091155548e-11 4.9069921015387763e-08 0.00019117404020368322 -3.8808812449042088e-14 6.9121938209212884e-13 7.5153192525347212e-13 0.00019114859756006050 -89.682139475999989 -158.46640519600001 82.438353807199988 112.88451412247700 0.0000000000000000 0.0000000000000000 0.0000000000000000 0.0000000000000000 3.0181021389593421 3.0362757003893730 1.0181736420190646 1.0089956315221917 276.82095046233275 276.82130437031708 1.0090456630413593 
-102.88177605829166 -155.02894833041074 85.879030965465518 -102.88177605829163 -155.02894833041077 85.879030965465518 -136.56905454842587 -2.0432010708407035e-06 -1.6224106580231566e-06 -1.1048093932949811e-05 0.0000000000000000 1.5811437922841340e-10 3.4185432262745508e-11 4.7363349464646376e-08 0.00019086631766956363 1.6000835185842750e-13 -5.5424501851516179e-14 3.3895852708234541e-13 0.0000000000000000 -102.70986659571734 -154.94403864466588 86.608986019839278 111.02505284862640 0.0000000000000000 0.0000000000000000 0.0000000000000000 0.0000000000000000 3.0183501428477890 3.0367788015481763 1.0184287501646023 1.0087531295950529 277.66500860108141 277.66427945282595 1.0091728124407988 
-100.57547776493254 -167.27291684242903 82.921586435078439 -100.57547776493261 -167.27291684242903 82.921586435078510 -141.48921465586619 -1.2768515441002474e-06 -2.0790811630261819e-06 -1.0509200025237326e-05 0.0000000000000000 1.5489961743830882e-10 3.9861808298624624e-11 4.8565904631203693e-08 0.00019125833549721191 -2.1630306815305886e-13 4.3510680027598214e-13 -7.4244852306852054e-14 0.0000000000000000 -100.40706467681501 -167.17391327890167 83.670075146830683 105.53983917324770 0.0000000000000000 0.0000000000000000 0.0000000000000000 0.0000000000000000 3.0179778869557059 3.0360306960628796 1.0180528985444075 1.0088017380078231 284.24925227482248 284.24926580642727 1.0089861451646955 
-114.81406118661009 -99.827219099209131 95.905140242984189 -114.81406118661010 -99.827219099209131 95.905140242984174 -123.35755813731612 -1.8318251808011399e-06 -2.4395819627267059e-06 -7.9362513720673297e-06 -124.29252542800735 1.7474843457153179e-10 8.6001206156538501e-12 4.3286512596552023e-08 0.00019008519377571880 6.9484584111015045e-13 1.5577762514708432e-12 2.1603777218868864e-12 0.00019015140368059671 -114.62406224400000 -99.805851428000011 96.572263865600007 85.211636250682801 0.0000000000000000 0.0000000000000000 0.0000000000000000 0.0000000000000000 3.0183742949923054 3.0368083506016736 1.0184340124693616 1.0080592456265995 253.83504581995206 253.55000314812966 1.0091742703246864 
-111.27219154392775 -91.108974183005571 99.577156612834543 -111.27219154392772 -91.108974183005571 99.577156612834557 -119.28397640164907 -8.5367540087935699e-07 -1.0780861137468057e-07 -8.7731644751729075e-06 -118.69582557032406 1.6981590786335765e-10 4.5696502137815287e-12 4.1793395855194142e-08 0.00018884011124406237 1.6157915617301636e-13 -2.7945251180184814e-14 2.5631398857782412e-12 0.00018815149183882876 -111.08756211600000 -91.097641973600034 100.22126851279998 99.535403830130534 0.0000000000000000 0.0000000000000000 0.0000000000000000 0.0000000000000000 3.0200066055293457 3.0401125385452241 1.0201060982494516 1.0086646161084682 249.99616000741165 250.04115763704979 1.0100044527559111 
-113.09173592992208 -97.674694815645324 107.79419378659065 -113.09173592992209 -97.674694815645339 107.79419378659068 -113.75178517341679 -7.4502484367713304e-07 -3.8677341235445550e-07 -7.3826064040259194e-06 -113.61964303859298 1.7234355262352175e-10 7.6099265777784824e-12 3.8452168782399105e-08 0.00018744565957550327 6.7381419162514106e-13 1.2261818326016517e-12 3.4816194376562438e-12 0.00018752644201610986 -112.90434805199999 -97.655804887999992 108.38681131359999 128.09762094244454 0.0000000000000000 0.0000000000000000 0.0000000000000000 0.0000000000000000 3.0184255674982001 3.0369414798590477 1.0185160318124580 1.0086315099595047 237.66173238429872 237.67832014760813 1.0092156724716617 
-107.33332436013845 -103.86721937182075 99.908127230351667 -107.33332436013839 -103.86721937182075 99.908127230351639 -118.25698378824139 -8.4867619450343897e-06 -7.4414448751568341e-07 -9.3695659158019413e-06 0.0000000000000000 1.6432274638211730e-10 1.0473386047316067e-11 4.1658805738364890e-08 0.00018973321363770649 9.3986181700961223e-13 1.2640869562911991e-12 1.3530388503914958e-13 0.0000000000000000 -107.15466629968294 -103.84120130723400 100.55016500991876 102.24201981555134 0.0000000000000000 0.0000000000000000 0.0000000000000000 0.0000000000000000 3.0146057564335629 3.0292021442301977 1.0145962505781398 1.0072409622959952 236.42203145530317 236.40731168415479 1.0072702023995754 
-26.960247246645991 -115.39432061957062 102.72169465467570 -26.960247246645974 -115.39432061957054 102.72169465467564 -63.122319298487966 8.3571766092046266e-06 5.7800479841076877e-06 -1.3025444088212697e-05 0.0000000000000000 3.0441538905004796e-08 4.9058185544055452e-09 6.0439578628423982e-08 0.00019589180952796055 5.0279553393274597e-12 1.6070003114430897e-11 3.1683537210969365e-11 0.0000000000000000 -26.889884864405381 -115.37486796036181 103.37575244326078 96.382960025775517 0.0000000000000000 0.0000000000000000 0.0000000000000000 0.0000000000000000 3.0266372864740658 3.0534527695739322 1.0268156790460454 1.0133830940700743 163.56752802732112 163.55191426475508 1.0133187243890234 
-109.75065693214226 -103.64753855677023 151.88111546288658 -109.75065693214225 -103.64753855677026 151.88111546288658 -108.69067658534620 2.5595621517433791e-07 7.8968344446130665e-07 1.6717562458784801e-07 -109.00417701753646 1.6769085772749828e-10 1.0371911662865331e-11 2.0525459110132260e-08 0.00018125747844526107 -1.0740519709026872e-13 -5.3741456758392822e-13 2.2541497488620048e-13 0.00018112971086302709 -109.56833416800004 -103.62177336400003 152.19744990400002 70.302883591683823 0.0000000000000000 0.0000000000000000 0.0000000000000000 0.0000000000000000 3.0171612489419299 3.0343800212337375 1.0172188183406061 1.0085722881655852 225.85885890861212 225.85852096606411 1.0085728931930158 