# For a description of the Tecplot format see the Tecplot User's guide.
#
Variables=x,y,z,s_u,s_v,s_w,s_p,mono_f_vel_u,mono_f_vel_v,mono_f_vel_w,const,u_nu,v_nu,w_nu,p_nu,x_nu,y_nu,z_nu,const,u_ref,v_ref,w_ref,vol_ref,x_ref,y_ref,z_ref,const,I1,I2,I3,J,p1,p2,p3
Zone f=fepoint, n=3174, e=16683, et=brick, c=black
-24.9212 -154.188 112.055 -24.921169610715896 -154.18839343271839 112.05466229486366 -36.469471301269472 -1.2032457629604104e-06 -5.2199281985828838e-06 -4.9030961617163447e-06 -36.126027952127131 3.2621189933329520e-09 2.9389347726282988e-09 5.8653116807860773e-07 0.00033821185482024681 5.2917793825579686e-12 1.6706558155096449e-11 -2.7069254492778486e-12 0.00033466669933353380 -24.903554063199991 -154.16086777200002 112.24023381839994 89.724962256112903 0.0000000000000000 0.0000000000000000 0.0000000000000000 0.0000000000000000 3.0060374050611660 3.0120805147609677 1.0060431057902606 1.0031672036491812 75.519177069994456 75.519210361960660 1.0030169526889163 
-37.465531465182757 -155.14793907886653 114.74920682540008 -37.465531465182742 -155.14793907886641 114.74920682540007 -34.096989278941912 4.1171133934686893e-06 -4.9889218380723769e-06 -2.6176796503075014e-06 0.0000000000000000 -1.9639995172020517e-08 -3.0922593411267032e-08 7.0131751003768233e-07 0.00034530087592103952 -4.8669469072155637e-13 -5.8182972087246164e-12 6.2163598012881838e-12 0.0000000000000000 -37.438273663334591 -155.10473791080037 114.93291110338620 89.036758072416930 0.0000000000000000 0.0000000000000000 0.0000000000000000 0.0000000000000000 3.0089168231179850 3.0178558145318610 1.0089390044347166 1.0042196067850682 77.495423007297646 77.495499080875121 1.0044597334886876 
-31.563537167729237 -147.90422679977928 119.69147335144790 -31.563537167729237 -147.90422679977928 119.69147335144784 -32.521432905333910 1.4316849485485771e-06 -3.7480482666907688e-06 -2.6305745597001838e-07 0.0000000000000000 3.8736043019016453e-09 2.6856782527062695e-09 5.3692976265118375e-07 0.00033691651755755723 1.2921041863969210e-13 1.2099352822809163e-11 1.6644954802673565e-12 0.0000000000000000 -31.542619574254449 -147.87907313389167 119.86135157363466 98.260374494724786 0.0000000000000000 0.0000000000000000 0.0000000000000000 0.0000000000000000 3.0072867949408431 3.0145868562776132 1.0073000644796546 1.0037794428351605 72.282414651249553 72.282421850909088 1.0036431602982612 
-28.667133514377735 -142.99068060528629 111.93871114119501 -28.667133514377728 -142.99068060528631 111.93871114119506 -32.106466903247579 1.9463444066587005e-06 -4.2475208160200634e-06 -3.0960983324116658e-06 0.0000000000000000 3.6069650963949096e-09 2.4876766445414145e-09 5.8728427743126588e-07 0.00034097985214883055 2.5977640665855347e-11 9.5872175224970886e-12 1.5534197513847359e-11 0.0000000000000000 -28.647655777685479 -142.96738158566356 112.12452093910819 112.69127588814607 0.0000000000000000 0.0000000000000000 0.0000000000000000 0.0000000000000000 3.0077375445993364 3.0154918797260502 1.0077543450059527 1.0038042754983842 72.169001839472671 72.168734195540068 1.0038696647410346 
-24.279156587155640 -200.47715731281383 73.461668101949712 -24.279156587155640 -200.47715731281386 73.461668101949712 -58.704249847264627 1.0668023889066937e-07 -4.1989587916573634e-09 9.8182994363657004e-08 -58.858263857460983 3.2030166990937303e-09 4.8044522353574148e-09 8.3719432675266603e-07 0.00035511675110451126 -2.0771634632820007e-12 -7.2861494723792831e-13 -9.1453968041376975e-13 0.00035538310364120610 -24.261860196399997 -200.43215969199997 73.726546483199982 142.71380061529433 0.0000000000000000 0.0000000000000000 0.0000000000000000 0.0000000000000000 3.0058798968244709 3.0117677900246451 1.0058878963156876 1.0029361405684851 114.66619745531911 114.66619745788174 1.0029396280250691 
-24.174642197484992 -187.67924468310139 75.048264234849668 -24.174642197484989 -187.67924468310139 75.048264234849654 -58.168286862383049 6.2704234693856488e-07 -9.2719107033780012e-07 -2.8606952524133731e-07 -58.328377017212645 3.1933946858381246e-09 4.2886672234343504e-09 8.2688932601104860e-07 0.00035467869058984636 -3.0044948475678792e-12 2.3583452218937013e-12 1.6259139473752943e-12 0.00035594637583717149 -24.157397762799999 -187.63907770800003 75.309882232799993 165.73632395326644 0.0000000000000000 0.0000000000000000 0.0000000000000000 0.0000000000000000 3.0058802186259626 3.0117683825446293 1.0058881669747257 1.0029361405684860 113.77054400720024 113.77054400039688 1.0029397602763461 
-34.908122523000294 -195.45443069953464 81.348006808911947 -34.908122523000287 -195.45443069953470 81.348006808911990 -57.939056637801727 1.9798272213689268e-07 -7.3186138867415812e-07 -1.4855961355565918e-06 0.0000000000000000 4.1815036225245628e-09 4.6020237863542146e-09 7.8597221786491644e-07 0.00035324208460149929 -2.5908133524263387e-12 2.4856457441280084e-12 -2.6279132591754171e-13 0.0000000000000000 -34.885542273181727 -195.41132893576267 81.596679120775832 139.46796289390394 0.0000000000000000 0.0000000000000000 0.0000000000000000 0.0000000000000000 3.0058310637162138 3.0116700514586934 1.0058389908670913 1.0028835087970511 113.27419617704847 113.27419617631230 1.0029152437744819 
-18.837192048722795 -194.57246886388845 81.163904364443567 -18.837192048722791 -194.57246886388842 81.163904364443610 -58.411686869806644 3.1032360805066904e-07 -4.5059915314266689e-07 -6.8814593759708095e-07 0.0000000000000000 2.7020358069063111e-09 4.5664708507586749e-09 7.8716798013189770e-07 0.00035520042605677625 -1.7116587652917993e-12 2.7660882072185982e-12 3.8416932592021898e-13 0.0000000000000000 -18.822600960987238 -194.52970000168264 81.412954998504986 111.95285379220412 0.0000000000000000 0.0000000000000000 0.0000000000000000 0.0000000000000000 3.0058903997095858 3.0117887849807388 1.0058983883745247 1.0029361405684842 114.47465928931651 114.47465928736347 1.0029448602538329 
-22.680483734384616 -103.21619526341988 42.911022975054429 -22.680483734384612 -103.21619526341988 42.911022975054429 -59.249469510146746 -1.0776632388943723e-06 1.2261357426273838e-06 -1.6539511871674510e-06 -59.558255023185538 3.0558431462351927e-09 8.8470190548473049e-10 1.0356220929708117e-06 0.00034523566083823407 -2.4299996215942649e-12 -2.8400548232981742e-12 4.4239772353396215e-12 0.00034741781377867204 -22.663982073999996 -103.20790935200000 43.238681550399988 69.202643319072678 0.0000000000000000 0.0000000000000000 0.0000000000000000 0.0000000000000000 3.0058684564531650 3.0117448717744910 1.0058764184156479 1.0029361405684851 115.68594303378612 115.68452259147868 1.0029339070590009 
-30.171886464111406 -110.78424946099446 46.668819519408252 -30.171886464111410 -110.78424946099447 46.668819519408252 -58.343914101764994 7.2501211224752271e-08 1.9714472233211718e-06 -2.2264672307656895e-06 -57.984440504905251 3.7454908358852679e-09 1.1897072597910618e-09 1.0112150388152941e-06 0.00034444801187422710 4.7007770201869413e-12 -1.9599348476808223e-12 3.8594891460682070e-12 0.00034814223641203590 -30.151660686400003 -110.77310694400001 46.988755992800002 74.715282964229786 0.0000000000000000 0.0000000000000000 0.0000000000000000 0.0000000000000000 3.0058998401581243 3.0118076771651583 1.0059078401090942 1.0029361405684849 113.96985826908023 113.96227042205099 1.0029495753028677 
-18.749697906750459 -103.57546984167534 49.694700879158283 -18.749697906750463 -103.57546984167537 49.694700879158283 -57.669989557230942 -1.3089446435470820e-06 1.0287887603287933e-06 -2.3847294632370816e-06 -57.725116216077943 2.6939810677389935e-09 8.9917062337518949e-10 9.9156180921600168e-07 0.00034392457851857274 -1.6602594725194357e-12 -4.1840895504673974e-12 2.9003084026753813e-12 0.00034485277053953033 -18.735150314000002 -103.56704831999998 50.008419303199993 79.719497061372692 0.0000000000000000 0.0000000000000000 0.0000000000000000 0.0000000000000000 3.0058709947775877 3.0117499472873086 1.0058789556010124 1.0029361405684851 112.87049722720282 112.86863575285928 1.0029351700362297 
-25.509787392648523 -98.494092711038249 50.670524810586642 -25.509787392648526 -98.494092711038292 50.670524810586613 -58.207961354003523 -1.4220471450905068e-08 5.1559148220470288e-07 -3.6266204303440041e-06 0.0000000000000000 3.3163065713687212e-09 6.9439229713474937e-10 9.8522379043952668e-07 0.00034379124806866178 1.8028296072047703e-13 -1.4566795585001215e-12 8.9431484664491739e-13 0.0000000000000000 -25.491879232152165 -98.487589184379729 50.982237960580505 72.292163684038698 0.0000000000000000 0.0000000000000000 0.0000000000000000 0.0000000000000000 3.0058643335810826 3.0117366517688762 1.0058723213077991 1.0029361405684847 113.70246395217312 113.71759330478621 1.0029318603594026 
-25.307227310671649 -104.23616372475419 108.56233871497068 -25.307227310671657 -104.23616372475412 108.56233871497075 -32.410188655053197 1.3558118541849177e-06 4.6329688843367114e-06 -1.2987554397404870e-06 0.0000000000000000 -7.0350307886131981e-08 7.2291891151226471e-09 6.2814800211479004e-07 0.00031568621804411675 -3.0440668272993866e-11 -1.8273568696095524e-11 7.7691707186522923e-11 0.0000000000000000 -25.283559732051039 -104.23282252886388 108.75695162467670 96.378087069502698 0.0000000000000000 0.0000000000000000 0.0000000000000000 0.0000000000000000 3.0072823942851037 3.0145750690788540 1.0072926683949719 1.0038902791175710 71.209873320056417 71.211317667338392 1.0036394292575637 
-25.938718775531914 -118.01864597270817 110.47268481281003 -25.938718775531921 -118.01864597270823 110.47268481281012 -28.788755159922211 2.6199073692893063e-06 9.1066132041383203e-07 -1.8819589220184613e-06 0.0000000000000000 -9.7407064045637183e-08 5.7971277522905251e-08 6.3705233965311462e-07 0.00032320033241159906 -2.7525007227697152e-11 2.8323171242785349e-11 6.1839608527958659e-11 0.0000000000000000 -25.913646985361510 -118.01095136745833 110.66456878241424 88.846747377876298 0.0000000000000000 0.0000000000000000 0.0000000000000000 0.0000000000000000 3.0104205422585282 3.0208684406480204 1.0104479128862751 1.0047953857274396 71.073947851473349 71.073928008702026 1.0052106830288778 
-36.275739366804373 -112.72060382191623 111.85132860082969 -36.275739366804373 -112.72060382191616 111.85132860082969 -29.005379066539966 -9.3346665056083087e-07 3.7382089112215566e-06 2.5547937661942142e-06 0.0000000000000000 -9.5945265546533184e-08 8.0669718010353300e-08 6.3773511512992125e-07 0.00031068214673376739 1.3397527411622241e-11 -1.3717452177049463e-11 -1.5801227655043504e-11 0.0000000000000000 -36.236867317722961 -112.72601430119678 112.03758904139967 95.996160021407249 0.0000000000000000 0.0000000000000000 0.0000000000000000 0.0000000000000000 3.0108247225387048 3.0216792194395383 1.0108545168680154 1.0051285897562190 72.235938789332792 72.237102329596567 1.0054126606823319 
-33.413203328470601 -105.08890702604543 105.42592515938983 -33.413203328470587 -105.08890702604548 105.42592515938985 -32.355418746726301 2.2556766299472221e-07 5.3994682580579027e-06 -2.3051127866307915e-06 0.0000000000000000 -9.0080868216006089e-08 3.0147467528985163e-08 6.2584536281697643e-07 0.00032500413780859081 -3.2429305198890587e-11 -2.0159773841067802e-11 6.6148770966351191e-11 0.0000000000000000 -33.380789828628046 -105.09637623893835 105.63342596379557 85.433794965156210 0.0000000000000000 0.0000000000000000 0.0000000000000000 0.0000000000000000 3.0090942117330521 3.0182058188517273 1.0091116070494648 1.0043415541333818 73.760261483529561 73.759980902755785 1.0045454228079891 
-112.28046582625221 -160.69346063974101 124.50428291901729 -112.28046582625218 -160.69346063974101 124.50428291901727 -46.929289868454447 1.5095020246982488e-07 -4.8120174012730715e-07 -1.3595258453035598e-06 -46.862007779742420 1.1304278620810626e-08 3.2011123925201890e-09 5.0567035098092461e-07 0.00030755295207236994 -9.4915663058444115e-13 3.2460728886380105e-12 8.1729061681078301e-12 0.00030707633747068360 -112.21942232800005 -160.66347960400000 124.66427103520003 147.55923210393107 0.0000000000000000 0.0000000000000000 0.0000000000000000 0.0000000000000000 3.0064309612032720 3.0128730670727006 1.0064421112559025 1.0029361405684847 95.328852530752116 95.315934779316294 1.0032161040475425 
-99.587350983079887 -158.12370002425021 116.40821599989343 -99.587350983079887 -158.12370002425027 116.40821599989341 -47.464256661861342 -1.3347382698565817e-06 -8.7976145109233067e-07 -2.7558737469110568e-06 0.0000000000000000 1.0135767964519760e-08 3.0975512467501516e-09 5.5825465894443482e-07 0.00031388796598131387 7.5407236348163210e-12 5.8296855940432933e-12 9.0359004565582940e-12 0.0000000000000000 -99.532617471171264 -158.09468895943013 116.58484116745363 117.70414803503969 0.0000000000000000 0.0000000000000000 0.0000000000000000 0.0000000000000000 3.0044804988021654 3.0089570359862132 1.0044765286785760 1.0023684155809609 92.110121174073626 92.119350409338026 1.0022355920930306 
-104.39968836814603 -148.88050197916726 120.72400423329398 -104.39968836814609 -148.88050197916721 120.72400423329404 -46.345088908268494 -1.1700866851983676e-06 -9.3412606613023702e-07 -1.2927277841966035e-06 0.0000000000000000 1.0578792657839342e-08 2.7250395932820752e-09 5.3022342277886381e-07 0.00030752904799192458 4.6171379459011543e-12 6.8936066197212672e-12 8.2346909261085073e-12 0.0000000000000000 -104.34256255272837 -148.85497981259945 120.89176065121424 119.29379793442074 0.0000000000000000 0.0000000000000000 0.0000000000000000 0.0000000000000000 3.0046073866095195 3.0092151284604634 1.0046077403229530 1.0024021411941983 90.457352831700675 90.461771829239495 1.0023009992101100 
-100.58563947468244 -162.31364730227631 124.40762869762153 -100.58563947468245 -162.31364730227634 124.40762869762149 -46.591126832343448 -8.0726110163667307e-07 -1.3877504296270004e-06 -1.1988806339267746e-06 0.0000000000000000 1.0227676375956785e-08 3.2664144687666319e-09 5.0629812753388848e-07 0.00030772173334824899 2.8568316530639317e-12 7.8291444542848950e-12 8.1530522836189093e-12 0.0000000000000000 -100.53040969477119 -162.28305471776312 124.56781543385799 141.51484144144280 0.0000000000000000 0.0000000000000000 0.0000000000000000 0.0000000000000000 3.0047480978091934 3.0094991025797677 1.0047510040113325 1.0024465805539868 91.126837231067341 91.081212422606939 1.0023725249807216 
-78.444750700887141 -148.82293842687409 89.215724408789470 -78.444750700887170 -148.82293842687409 89.215724408789455 -47.747631963042018 -3.3419658993045295e-06 -2.2430486935477350e-06 -1.1173473526817484e-06 -47.722995168432014 8.1894213806166238e-09 2.7227150985187350e-09 7.3487106283520721e-07 0.00033869383452875566 4.7065282280893038e-12 8.3927274948901520e-12 5.3255152041434779e-12 0.00034050450337226167 -78.400527573600002 -148.79743798799998 89.448228916799977 108.06316173413846 0.0000000000000000 0.0000000000000000 0.0000000000000000 0.0000000000000000 3.0062608170826097 3.0125309246601875 1.0062701122219158 1.0029361405684869 96.435510947296493 96.435497832434663 1.0031302785927605 
-80.194456227643684 -162.56533190031195 87.537055621949648 -80.194456227643713 -162.56533190031195 87.537055621949619 -52.797330869042092 -1.9800163063781813e-06 -3.5652124672691428e-06 -2.0189535337078408e-06 -52.961459825777872 8.3504952293200763e-09 3.2765604153495161e-09 7.4577407899178993e-07 0.00034117907340749405 1.2045198343071599e-12 9.5475494807277493e-12 9.2439048121252712e-12 0.00034308520654058257 -80.149363288800018 -162.53464431600008 87.773009718400019 109.57810873427631 0.0000000000000000 0.0000000000000000 0.0000000000000000 0.0000000000000000 3.0063470210739496 3.0127028316038009 1.0063558140576210 1.0029361405684847 105.50330000079678 105.50328509099873 1.0031730664402383 
-84.342633688765346 -160.21423352538847 94.752067651785225 -84.342633688765360 -160.21423352538844 94.752067651785197 -50.536779508834151 -1.5333159359349189e-06 -2.4847507565952359e-06 -3.7441678344790955e-06 0.0000000000000000 8.7323652857296263e-09 3.1817848945847604e-09 6.9891227688634316e-07 0.00033837718357371504 -2.3685765929393851e-12 5.2103916105695738e-12 2.2689172031514285e-12 0.0000000000000000 -84.295478612813938 -160.18443337667750 94.973195224810283 106.11323630727971 0.0000000000000000 0.0000000000000000 0.0000000000000000 0.0000000000000000 3.0047368727618058 3.0094791616224508 1.0047422898696929 1.0024805578310534 97.793063872854120 97.793079783036930 1.0023681015194545 
-86.522249286698155 -151.41662855809381 92.408541470054388 -86.522249286698127 -151.41662855809375 92.408541470054388 -49.698134363518328 -1.6922768656961424e-06 -3.2230105975402140e-06 -3.6341094134972471e-06 0.0000000000000000 8.9330148660138331e-09 2.8272438452880966e-09 7.1413357627392315e-07 0.00033809182072314396 1.8142129663887327e-12 7.9377822752154214e-12 1.5538473488971806e-13 0.0000000000000000 -86.474010682800568 -151.39014911596544 92.634484883397832 94.367740677547317 0.0000000000000000 0.0000000000000000 0.0000000000000000 0.0000000000000000 3.0053384134356382 3.0106839330077118 1.0053455227005574 1.0025811346484048 97.354629289439615 97.354513592761180 1.0026691928560503 
-26.036826691653708 -132.45021557248651 138.51342458839011 -26.036826691653705 -132.45021557248651 138.51342458839011 -36.923561631832918 1.4087802551485444e-06 -1.2480080165158607e-06 5.7803545016573058e-06 -37.839187077004098 3.3648251528822781e-09 2.0628602402650298e-09 4.1468037847991468e-07 0.00031564135281273885 6.9087499216148772e-12 -2.3921766887553485e-12 -4.8936067954565529e-12 0.00030978832889346717 -26.018656529999991 -132.43089511199997 138.64462455200004 49.421240865332216 0.0000000000000000 0.0000000000000000 0.0000000000000000 0.0000000000000000 3.0058230330426694 3.0116539276695993 1.0058308985254472 1.0031976301107612 76.530357371791851 76.582632971286429 1.0029113662660423 
-32.516838411869664 -133.97670996457245 137.46960519474251 -32.516838411869678 -133.97670996457239 137.46960519474257 -36.266273651063564 -2.8459418769663884e-07 6.6322493462059074e-07 3.7272090023245630e-06 -34.120994833604421 3.9613632304980051e-09 2.1243799115666655e-09 4.2146002693366214e-07 0.00032224890960132809 8.2488647903344943e-12 6.5747803354000269e-12 1.6080515973871902e-11 0.00032811593503774029 -32.495446914399992 -133.95681332000001 137.60295016000006 48.530522504776933 0.0000000000000000 0.0000000000000000 0.0000000000000000 0.0000000000000000 3.0076736913709108 3.0153612589646115 1.0076875738970441 1.0038610710241087 79.479278574005335 79.475213316433596 1.0038360256516017 
-28.437567471490649 -136.45961093782194 140.18225395727103 -28.437567471490642 -136.45961093782194 140.18225395727106 -37.273890491378225 1.9248411373127688e-06 7.1220697211911043e-07 1.7877298055666240e-06 -38.234278537104714 3.5858318744863568e-09 2.2244586901642989e-09 4.0384124244674524e-07 0.00031667685672773579 9.7640160161610416e-12 -9.2105837344828162e-12 6.1525290473620157e-12 0.00031124420625951166 -28.418203856399998 -136.43877710800004 140.31002455199999 44.353383947079159 0.0000000000000000 0.0000000000000000 0.0000000000000000 0.0000000000000000 3.0062733771281387 3.0125550749358632 1.0062817004295681 1.0034189512161833 78.351376469054259 78.347490051795290 1.0031357894308728 
-26.786908532774063 -129.51995154010160 143.72784981108714 -26.786908532774074 -129.51995154010166 143.72784981108722 -38.297548190035002 4.9243066908130904e-07 6.0430969017784111e-07 1.2899239873245593e-06 0.0000000000000000 3.4338765615704596e-09 1.9447715139675470e-09 3.8081246217513970e-07 0.00031498240119239170 1.5243651465729070e-12 -5.6609803254378000e-13 6.3773376091993383e-12 0.0000000000000000 -26.768365491316434 -129.50173712462359 143.84833436668455 49.139845408488213 0.0000000000000000 0.0000000000000000 0.0000000000000000 0.0000000000000000 3.0063221003221496 3.0126547087601820 1.0063326128692356 1.0034064929904620 80.523734797530764 80.529978613415494 1.0031612157664056 
-40.093920132635859 -65.470109430275230 153.85370466619210 -40.093920132635851 -65.470109430275230 153.85370466619210 -45.179511570512545 -6.4632332023423495e-07 -1.2032619498784242e-08 1.0134506947198785e-06 -45.359714218622898 4.6588990686158294e-09 -6.3652435058902935e-10 3.1504458314346451e-07 0.00030294368969309887 -2.5413873411091502e-12 -2.3216475881840965e-13 1.0502444293376486e-12 0.00030286854758533978 -40.068761925200000 -65.476070995999990 153.95338104800004 156.95717166164070 0.0000000000000000 0.0000000000000000 0.0000000000000000 0.0000000000000000 3.0056655244222106 3.0113389396140970 1.0056734189092309 1.0028298573923153 90.639909537544114 90.639908572937458 1.0028327109236004 
-52.458062560998883 -59.647616970215786 149.15448142294770 -52.458062560998883 -59.647616970215800 149.15448142294775 -45.526430672649930 -6.1745403606899257e-07 -1.9403119275954017e-07 8.6631566076420670e-07 -45.602208836695702 5.7971261922806772e-09 -8.7118134581287698e-10 3.4556623745851667e-07 0.00030108837382153289 -4.7659677992232607e-14 -2.0414109935178032e-12 3.2001684704068026e-12 0.00030209151158154670 -52.426757905599978 -59.655776269200025 149.26381449600007 118.05125250056595 0.0000000000000000 0.0000000000000000 0.0000000000000000 0.0000000000000000 3.0060253539465811 3.0120597648334235 1.0060344149212068 1.0028510388304446 92.037277522801801 92.037275500907526 1.0030126973026781 
-35.195640442789184 -66.024017677728310 144.88147720051549 -35.195640442789177 -66.024017677728324 144.88147720051549 -44.503652461358044 -2.2609842589271621e-07 1.1943361439524721e-07 1.5758104391761891e-07 -44.492390027884355 4.2079727549659829e-09 -6.1420215441421178e-10 3.7331958807618188e-07 0.00030446075682116991 -1.3304126990966046e-12 9.2443759935624596e-13 1.2534111180576256e-12 0.00030536405852009488 -35.172917262399999 -66.029770167599992 144.99959110400002 155.12084301790807 0.0000000000000000 0.0000000000000000 0.0000000000000000 0.0000000000000000 3.0059813143793765 3.0119705189177606 1.0059892076653336 1.0029302220274665 90.227573833012002 90.227610506301431 1.0029901402820622 
-50.443131239872237 -66.584587288782103 142.07959896179696 -50.443131239872251 -66.584587288782117 142.07959896179693 -44.952533109270661 -6.3883680380134898e-07 2.6283041149320673e-07 5.6975631613569496e-07 0.0000000000000000 5.6116328181476929e-09 -5.9161057303080966e-10 3.9151792852187834e-07 0.00030236567131281873 -6.7606188055665263e-13 -1.4827147229638004e-12 2.4177194748444767e-12 0.0000000000000000 -50.412828244765279 -66.590128188430739 142.20347059834828 136.07757377940416 0.0000000000000000 0.0000000000000000 0.0000000000000000 0.0000000000000000 3.0052035995756099 3.0104110832393456 1.0052074825724586 1.0026670449999655 89.283471748958377 89.283467797168683 1.0026003090268245 
-94.611979000832150 -158.74599710643210 77.370019756646499 -94.611979000832179 -158.74599710643207 77.370019756646485 -57.717097048242820 -8.1947771432330802e-07 -1.0133907317418961e-06 -1.5337141222008847e-06 -57.706603802468095 9.6777513190760001e-09 3.1226228998371131e-09 8.1180942490544094e-07 0.00034472563147756115 -1.3251096875798540e-12 2.8111823165559742e-12 4.7485251056241389e-12 0.00034721848879208688 -94.559718839999974 -158.71675115199997 77.626866652000004 109.98746742214213 0.0000000000000000 0.0000000000000000 0.0000000000000000 0.0000000000000000 3.0058444249303133 3.0116967659974021 1.0058523441716294 1.0029361405684847 112.92928435841507 112.92951964487884 1.0029218961851283 
-89.731973694325461 -158.49555662023050 82.191414660327951 -89.731973694325461 -158.49555662023050 82.191414660327979 -55.481966448232100 -2.9078091424855284e-06 -2.4078080525108930e-06 -3.1896663682184491e-06 -54.702935519752032 9.2285031734473682e-09 3.1125453707481214e-09 7.8049425311643727e-07 0.00034216907586098397 -4.6921184778493662e-14 5.3081907495432322e-12 1.1546302658982889e-11 0.00034653494389737239 -89.682139475999989 -158.46640519600001 82.438353807199988 112.88451412247700 0.0000000000000000 0.0000000000000000 0.0000000000000000 0.0000000000000000 3.0059064477031834 3.0118205171632302 1.0059140722752544 1.0029361405684838 108.88623293691757 108.88653793146949 1.0029526508844384 
-102.76618036355426 -154.97186002935626 86.370634981724152 -102.76618036355423 -154.97186002935629 86.370634981724109 -55.268140435314351 -6.7832392828109012e-07 -5.2167756703197016e-07 -3.6338923129023155e-06 0.0000000000000000 1.0428410111146258e-08 2.9705298880411406e-09 7.5335003635323972e-07 0.00034020529354280459 3.4199061507412014e-12 2.5824264300433520e-12 2.1065628553118537e-12 0.0000000000000000 -102.70986659571734 -154.94403864466588 86.608986019839278 111.02505284862640 0.0000000000000000 0.0000000000000000 0.0000000000000000 0.0000000000000000 3.0059891210989220 3.0119866278689362 1.0059975099663587 1.0028566929875866 109.19649359961521 109.19683792114532 1.0029943263317487 
-100.46223310909866 -167.20635264317974 83.425672343679139 -100.46223310909865 -167.20635264317971 83.425672343679210 -56.873102306747690 -4.2879340948450178e-07 -6.7228784973642820e-07 -3.4535661214619613e-06 0.0000000000000000 1.0216318405836811e-08 3.4635931171755896e-09 7.7247769036947755e-07 0.00034327205049878396 1.7152314855057782e-12 3.6424322948526739e-12 3.0726114285937094e-12 0.0000000000000000 -100.40706467681501 -167.17391327890167 83.670075146830683 105.53983917324770 0.0000000000000000 0.0000000000000000 0.0000000000000000 0.0000000000000000 3.0058670145622703 3.0117420290384165 1.0058750176027080 1.0028727032188760 111.33912063959180 111.33905045338987 1.0029332146566068 
-114.68630172857046 -99.812852728210117 96.354429072829078 -114.68630172857046 -99.812852728210132 96.354429072829106 -50.985920429377529 -6.0164455909394935e-07 -7.9453409646285151e-07 -2.6129218455400872e-06 -51.293732193425178 1.1525765123061947e-08 7.4753399650906448e-10 6.8850486978355729e-07 0.00032307886905233164 1.8758992300047732e-12 4.6790446205638939e-12 1.1010025955456965e-11 0.00032368428500463309 -114.62406224400000 -99.805851428000011 96.572263865600007 85.211636250682801 0.0000000000000000 0.0000000000000000 0.0000000000000000 0.0000000000000000 3.0059917269309908 3.0119897475605151 1.0059980189901572 1.0026274555137435 101.45574368999050 101.45298155906531 1.0029944542876961 
-111.14804266538043 -91.101355068925912 100.01094770044426 -111.14804266538043 -91.101355068925926 100.01094770044428 -49.646623132044297 -2.8184845145345019e-07 -3.3148944403328366e-08 -2.8942707411374519e-06 -49.451916570375985 1.1200034243791236e-08 3.9644616409151285e-10 6.6475561899537183e-07 0.00031819112392338686 -1.4157000163910871e-14 -1.1734293228273359e-13 8.8176340530885884e-12 0.00031743267945313029 -111.08756211600000 -91.097641973600034 100.22126851279998 99.535403830130534 0.0000000000000000 0.0000000000000000 0.0000000000000000 0.0000000000000000 3.0065414582142624 3.0130935976596169 1.0065521452935431 1.0028277306551507 100.22865052720464 100.22882931144923 1.0032708827687831 
-112.96573220907163 -97.661994334341529 108.19330487519458 -112.96573220907159 -97.661994334341514 108.19330487519458 -47.825597572854875 -2.4217400359127232e-07 -1.1884006575430506e-07 -2.4192780082225208e-06 -47.779873962514209 1.1367371575282670e-08 6.6084898317497743e-10 6.1161085962435635e-07 0.00031059088597712345 1.0599748166201001e-12 3.1203557723801326e-12 8.3364947050587972e-12 0.00031025405994556006 -112.90434805199999 -97.655804887999992 108.38681131359999 128.09762094244454 0.0000000000000000 0.0000000000000000 0.0000000000000000 0.0000000000000000 3.0060168611803060 3.0120433951522192 1.0060265381551492 1.0028154810543739 96.151519146296110 96.151742368717294 1.0030087569917003 
-107.21319076010546 -103.84972634860496 100.34052145672737 -107.21319076010546 -103.84972634860500 100.34052145672739 -49.302643174534062 -2.7857437641705088e-06 -2.3942464704752869e-07 -3.0919621629283519e-06 0.0000000000000000 1.0837798974233648e-08 9.1023554318891975e-10 6.6261502074116397e-07 0.00031858590410536715 1.3993041005712110e-11 2.7741621595045237e-12 8.8483246943218586e-12 0.0000000000000000 -107.15466629968294 -103.84120130723400 100.55016500991876 102.24201981555134 0.0000000000000000 0.0000000000000000 0.0000000000000000 0.0000000000000000 3.0047405565197782 3.0094799442478810 1.0047393827798070 1.0023570681251992 95.674206619791633 95.673931506336558 1.0023667268191898 
-26.913177871147731 -115.38086633146764 103.16192823108014 -26.913177871147727 -115.38086633146760 103.16192823108017 -30.674162241431027 2.8259860365640184e-06 2.0636225741957260e-06 -4.4521663926986391e-06 0.0000000000000000 -9.0062585516363058e-08 6.5572171540323400e-08 6.7672959704725535e-07 0.00034731191653873341 -1.7421078758248228e-12 1.9610975706696203e-11 5.8745398925075096e-11 0.0000000000000000 -26.889884864405381 -115.37486796036181 103.37575244326078 96.382960025775517 0.0000000000000000 0.0000000000000000 0.0000000000000000 0.0000000000000000 3.0087783356572220 3.0175760060594388 1.0087976770744627 1.0044151510174533 71.059101398145685 71.059576469448928 1.0043891597650016 
-109.62805910493800 -103.63021554975765 152.09415773281881 -109.62805910493802 -103.63021554975764 152.09415773281881 -46.218833264915993 8.8174951903556265e-08 2.6408350111638086e-07 6.8563460685262364e-08 -46.324299446392374 1.1060111191479871e-08 9.0138734323841341e-10 3.2647291320353494e-07 0.00028612281164811518 1.7984659812736371e-13 -3.1836791061261281e-14 6.7395437700386934e-13 0.00028584953754707399 -109.56833416800004 -103.62177336400003 152.19744990400002 70.302883591683823 0.0000000000000000 0.0000000000000000 0.0000000000000000 0.0000000000000000 3.0055958127415869 3.0111977284539129 1.0056019172882049 1.0027953339081042 92.354362277658240 92.354363708373043 1.0027970725202935 