# For a description of the Tecplot format see the Tecplot User's guide.
#
Variables=x,y,z,s_u,s_v,s_w,s_p,mono_f_vel_u,mono_f_vel_v,mono_f_vel_w,const,u_nu,v_nu,w_nu,p_nu,x_nu,y_nu,z_nu,const,u_ref,v_ref,w_ref,vol_ref,x_ref,y_ref,z_ref,const,I1,I2,I3,J,p1,p2,p3
Zone f=fepoint, n=3174, e=16683, et=brick, c=black
-25.9775 -155.827 99.7584 -25.977491053612194 -155.82701751317515 99.758414241469396 -25.512923073569059 -2.6020457729670639e-05 -3.1926920289970131e-05 -5.5287989564764998e-05 22.105799603473244 1.4838880346701441e-08 7.6527804093728946e-09 5.0258124023372375e-05 0.012806448024115770 8.5551621069653615e-10 3.7971817437657242e-09 -5.2452117922854130e-09 0.012543072379866486 -24.903554063199991 -154.16086777200002 112.24023381839994 89.724962256112903 0.0000000000000000 0.0000000000000000 0.0000000000000000 0.0000000000000000 3.4078341218683139 3.8499668100968671 1.4428661235302558 1.2021457143073342 1422.8442121285555 1422.8823962277818 1.2011292197940335 
-38.898204900995566 -156.99720155113161 102.74920829413550 -38.898204900995559 -156.99720155113161 102.74920829413546 -5.4958246570094902 1.3725167560541260e-05 4.4877134331156324e-05 -1.9720532321544359e-05 0.0000000000000000 -9.2947129284458841e-07 4.7349513436237370e-06 5.0574066824944965e-05 0.013035476848081878 -2.1887002487820508e-09 3.2740585135013186e-09 -3.8447009048198777e-09 0.0000000000000000 -37.438273663334591 -155.10473791080037 114.93291110338620 89.036758072416930 0.0000000000000000 0.0000000000000000 0.0000000000000000 0.0000000000000000 3.4378983667559977 3.9223253197498593 1.4858172816915076 1.2142797478946021 1505.9757024547728 1505.9730553427701 1.2189739604448058 
-32.817866759315507 -149.40164417540541 108.43508703165470 -32.817866759315507 -149.40164417540552 108.43508703165477 1.3101717134419202 -6.4788461869029441e-06 3.6265215333843163e-05 -4.4085876247377949e-05 0.0000000000000000 1.7620443215626832e-08 6.9933265844923653e-09 4.6007925117663717e-05 0.012108834693641121 5.1773354127834072e-10 7.1291547258018976e-09 -2.2428914714073573e-09 0.0000000000000000 -31.542619574254449 -147.87907313389167 119.86135157363466 98.260374494724786 0.0000000000000000 0.0000000000000000 0.0000000000000000 0.0000000000000000 3.4141381412311067 3.8658684785398547 1.4526486177809723 1.2057783543175964 1432.8887141736770 1432.8679565002537 1.2052353414043189 
-29.835121674187398 -144.37768944026033 99.626674669470958 -29.835121674187381 -144.37768944026035 99.626674669470958 -1.5682649929789940 -2.7646984636665563e-05 -8.5561408062533511e-06 4.0072981511426969e-05 0.0000000000000000 1.6407543212970666e-08 6.4776701780289167e-09 5.0322655596346528e-05 0.010614555533327196 9.5212212727292014e-10 1.9649970710618887e-09 2.5546276381559759e-09 0.0000000000000000 -28.647655777685479 -142.96738158566356 112.12452093910819 112.69127588814607 0.0000000000000000 0.0000000000000000 0.0000000000000000 0.0000000000000000 3.4197615377395749 3.8784904546890400 1.4597491932417606 1.2067888770155402 1446.9632344066924 1446.9770012856177 1.2082047601915609 
-25.316339701867154 -203.15590082357511 55.910428462545255 -25.316339701867154 -203.15590082357514 55.910428462545262 -876.39178715037815 2.4623416696989689e-05 3.9702357198524542e-06 1.1083872475812383e-05 -886.38857697033586 1.4570031070526565e-08 1.2510415592359438e-08 7.1736709816860866e-05 0.014052162728523641 -1.1207254015262667e-10 -6.2460790638908593e-11 -9.5137409780861036e-11 0.014057157477909473 -24.261860196399997 -200.43215969199997 73.726546483199982 142.71380061529433 0.0000000000000000 0.0000000000000000 0.0000000000000000 0.0000000000000000 3.4044178824063751 3.8437211964585947 1.4401500601080577 1.1998368110458872 2931.3412342012834 2931.3999064680484 1.2000634380639237 
-25.208709751271499 -190.07041608180575 57.713062493077850 -25.208709751271499 -190.07041608180572 57.713062493077850 -851.51793778977083 4.8854516440962386e-05 -5.1878726161241036e-05 -1.5771076601584625e-05 -865.38761083177747 1.4526266411962752e-08 1.1167376134935125e-08 7.0853703924456113e-05 0.013955935452472940 -3.4970971982712201e-10 2.9640516387229679e-10 1.6355707345848330e-10 0.014038343210196393 -24.157397762799999 -187.63907770800003 75.309882232799993 165.73632395326644 0.0000000000000000 0.0000000000000000 0.0000000000000000 0.0000000000000000 3.4043106586675185 3.8433407104663977 1.4398674555061588 1.1998368110458846 2889.3574194603507 2889.9274777742671 1.1999413053337966 
-36.262153787017148 -198.02031235991012 64.870605683885387 -36.262153787017127 -198.02031235991026 64.870605683885358 -824.95297791070152 3.5004670640723380e-05 -3.6055391381113099e-05 -7.4704739635084619e-05 0.0000000000000000 1.9021020758458462e-08 1.1983315451047361e-08 6.7347638523784781e-05 0.013893352931099322 -2.0827709036451230e-10 3.1806543464273082e-10 6.6432418820748298e-11 0.0000000000000000 -34.885542273181727 -195.41132893576267 81.596679120775832 139.46796289390394 0.0000000000000000 0.0000000000000000 0.0000000000000000 0.0000000000000000 3.4016225735480972 3.8377671591072282 1.4369872393861975 1.1975780885407070 2834.0949565432834 2834.0306294878096 1.1987423606920848 
-19.712150879059401 -197.11853263402131 64.661435042018027 -19.712150879059397 -197.11853263402125 64.661435042017999 -870.37678140358116 2.5883681229602991e-05 -2.2104675255313508e-05 -3.6762283005593357e-05 0.0000000000000000 1.2291154871668654e-08 1.1890741502540436e-08 6.7450099106025618e-05 0.014041148813494313 -2.1303287364965613e-10 2.0537295561924632e-10 1.5875610092110636e-11 0.0000000000000000 -18.822600960987238 -194.52970000168264 81.412954998504986 111.95285379220412 0.0000000000000000 0.0000000000000000 0.0000000000000000 0.0000000000000000 3.4047566464382202 3.8443358032712172 1.4404229059873921 1.1998368110458864 2933.8286970531090 2933.0004562673425 1.2001785776174543 
-23.670010610680976 -103.70946204164765 21.199873319689232 -23.670010610680976 -103.70946204164764 21.199873319689232 -605.93277727584746 -3.0346792516831376e-05 3.5275060758609878e-05 -4.8710412086405289e-05 -620.20950134952454 1.3900571693703512e-08 2.3036748064697576e-09 8.8739398158566019e-05 0.0098569627663454666 3.1761850394230174e-11 -2.3797105370361354e-10 3.7000151204970855e-10 0.0099834148193273537 -22.663982073999996 -103.20790935200000 43.238681550399988 69.202643319072678 0.0000000000000000 0.0000000000000000 0.0000000000000000 0.0000000000000000 3.4038520904922831 3.8424656347844239 1.4394562061961838 1.1998368110458866 2461.8674162440825 2461.8660581829081 1.1997744312237961 
-31.384731121736813 -111.44757220012207 25.469347945401754 -31.384731121736817 -111.44757220012207 25.469347945401754 -579.39519170693075 7.2275689746725691e-06 5.2261067080516800e-05 -7.2407209260636434e-05 -576.75380298654602 1.7037671384834138e-08 3.0978777321166721e-09 8.6648030098501736e-05 0.0096914253877466092 1.1607696430302515e-10 -2.4298496953636551e-10 5.1474083802222485e-10 0.0098801689930018474 -30.151660686400003 -110.77310694400001 46.988755992800002 74.715282964229786 0.0000000000000000 0.0000000000000000 0.0000000000000000 0.0000000000000000 3.4044841072536607 3.8437375584283209 1.4400943576103684 1.1998368110458866 2408.8326853596836 2408.8443909258826 1.2000414789134026 
-19.622048547623823 -104.07680960432381 28.907246600474028 -19.622048547623823 -104.07680960432383 28.907246600474028 -559.32313254322219 -3.9282140632927905e-05 2.6695153748095375e-05 -7.8561436106964108e-05 -563.82261058631116 1.2254514736298461e-08 2.3413819771889166e-09 8.4964002887488732e-05 0.0096459901275719115 6.0115481230501985e-11 -3.4160336581186421e-10 3.3747397699506043e-10 0.0096537698729019673 -18.735150314000002 -103.56704831999998 50.008419303199993 79.719497061372692 0.0000000000000000 0.0000000000000000 0.0000000000000000 0.0000000000000000 3.4038822118735443 3.8425093250093121 1.4394687323273629 1.1998368110458870 2377.7705992620586 2377.7887848517321 1.1997787606121708 
-26.583655458234102 -98.881252732357453 30.015943004130129 -26.583655458234109 -98.881252732357495 30.015943004130126 -567.33699493823792 8.8062841859204914e-06 6.8593697886740654e-06 -0.00012337993904608944 0.0000000000000000 1.5085372728762536e-08 1.8081343089448863e-09 8.4420916802940837e-05 0.0096785184951177581 -2.0957129639050285e-10 -1.6416852929503179e-10 3.9365571932660149e-10 0.0000000000000000 -25.491879232152165 -98.487589184379729 50.982237960580505 72.292163684038698 0.0000000000000000 0.0000000000000000 0.0000000000000000 0.0000000000000000 3.4040469573807410 3.8429599490933173 1.4397612059888050 1.1998368110458872 2390.4220781179815 2390.3916291004648 1.1998991694780983 
-26.407003686432748 -104.74865282771448 95.771905313504362 -26.407003686432748 -104.74865282771451 95.771905313504291 0.83013121615559038 -2.8015051589478066e-07 3.0886498895988156e-05 2.0834344175791190e-05 0.0000000000000000 4.2593864142428935e-07 1.2292495583463121e-07 5.4255886101992137e-05 0.0086687377942247113 -5.0575531683486042e-09 1.5585441917785002e-10 4.8837621127084989e-09 0.0000000000000000 -25.283559732051039 -104.23282252886388 108.75695162467670 96.378087069502698 0.0000000000000000 0.0000000000000000 0.0000000000000000 0.0000000000000000 3.4150677729907093 3.8676772101442216 1.4535431123896736 1.2070247065879074 1422.7729311795388 1422.7730648563324 1.2056174847111973 
-27.054601412134524 -118.84996234194685 97.910745583292126 -27.054601412134510 -118.84996234194693 97.910745583292169 7.3459538497485566 -1.8159439746938973e-05 -8.0627458867866646e-06 1.2711404939994131e-05 0.0000000000000000 -1.0747533765407877e-07 1.3806132743262485e-06 5.5459080915363655e-05 0.0084479315584162998 -7.2181296063207440e-09 2.2716656629400708e-09 9.3431842393946095e-09 0.0000000000000000 -25.913646985361510 -118.01095136745833 110.66456878241424 88.846747377876298 0.0000000000000000 0.0000000000000000 0.0000000000000000 0.0000000000000000 3.4315844672649254 3.9031695457587605 1.4726140523570330 1.2106648513183680 1474.8716290798377 1474.8710707267749 1.2135225207405822 
-37.729863994016995 -113.39584746168950 99.460539662218920 -37.729863994017016 -113.39584746168943 99.460539662218849 2.9733889343002557 -1.7228153652449191e-05 -2.8436071850975778e-05 -1.2878633641802674e-05 0.0000000000000000 2.6403826585327288e-06 7.3272388617988992e-07 5.3893025085455103e-05 0.0064198442385734970 2.5494605550737160e-09 -1.7455551032278753e-09 -3.2974596630944649e-09 0.0000000000000000 -36.236867317722961 -112.72601430119678 112.03758904139967 95.996160021407249 0.0000000000000000 0.0000000000000000 0.0000000000000000 0.0000000000000000 3.4267616306930830 3.8932050107124487 1.4674864909669645 1.2112022473588782 1477.0628826610052 1477.0634848673719 1.2113973483398086 
-34.757460388863116 -105.57819680225046 92.136754780450275 -34.757460388863130 -105.57819680225052 92.136754780450261 5.4344955915345645 -1.5553957328530768e-05 1.9657877768970859e-05 1.9099857946015841e-05 0.0000000000000000 1.0090780200197804e-06 -1.2724167006171991e-06 5.7527489156012916e-05 0.0085519060070523550 -2.9356531486962555e-09 -4.2493294417082130e-09 5.7275788335616198e-09 0.0000000000000000 -33.380789828628046 -105.09637623893835 105.63342596379557 85.433794965156210 0.0000000000000000 0.0000000000000000 0.0000000000000000 0.0000000000000000 3.4332444137498217 3.9067885758120551 1.4745892791273361 1.2117250510169710 1457.4119333110932 1457.4122365578007 1.2143266412198739 
-115.94095699718984 -162.47825511297359 113.90322988733912 -115.94095699718986 -162.47825511297359 113.90322988733914 -144.47006237801943 7.6828782012362059e-06 -2.1137431412739531e-05 -3.0510097166496086e-05 -143.16858187119007 5.1421462865519636e-08 8.3354414481817668e-09 4.3329398984326424e-05 0.010404430799981598 -2.0110962629819070e-10 5.4009646304874876e-10 4.3432043500366837e-10 0.010398756471160345 -112.21942232800005 -160.66347960400000 124.66427103520003 147.55923210393107 0.0000000000000000 0.0000000000000000 0.0000000000000000 0.0000000000000000 3.4082399424299816 3.8532939823607837 1.4460076521586129 1.1998368110458848 1670.5600479657860 1670.5599402032165 1.2025171680766797 
-102.86946198314725 -159.85075137100125 104.70476693936340 -102.86946198314720 -159.85075137100111 104.70476693936338 -162.47657757949278 -3.2054069884146005e-05 -3.1297703838534854e-05 -6.6257790000300094e-05 0.0000000000000000 4.6106094719888795e-08 8.0657660550542687e-09 4.7835192638956414e-05 0.011043240933568481 -1.0892428048860359e-10 1.3496531403415785e-10 5.0905524228441910e-11 0.0000000000000000 -99.532617471171264 -158.09468895943013 116.58484116745363 117.70414803503969 0.0000000000000000 0.0000000000000000 0.0000000000000000 0.0000000000000000 3.3957265544655018 3.8192445656430363 1.4239257158742047 1.1949061171501518 1656.3234150753945 1656.3236043303311 1.1932657748685398 
-107.82525454564970 -150.39985648809071 109.60821185314886 -107.82525454564971 -150.39985648809076 109.60821185314886 -119.14649346113281 -2.0381925328310269e-05 -5.1423734539989182e-05 -6.2162726168982105e-06 0.0000000000000000 4.8121309825788223e-08 7.0957548725658626e-09 4.5433279282747208e-05 0.010218431972259832 -9.4431968640846219e-10 1.1644464201169024e-09 3.1603113949463437e-10 0.0000000000000000 -104.34256255272837 -148.85497981259945 120.89176065121424 119.29379793442074 0.0000000000000000 0.0000000000000000 0.0000000000000000 0.0000000000000000 3.3949223844835363 3.8198410872533222 1.4255099661425585 1.1962887343494473 1581.1376119389192 1581.1377409350657 1.1939302211722549 
-103.89750933021571 -164.13484775154205 113.79341480266211 -103.89750933021564 -164.13484775154208 113.79341480266206 -144.65997072073509 -1.2854799910517460e-05 -4.9907355968088266e-05 -3.4726448372489838e-05 0.0000000000000000 4.6524142094384047e-08 8.5054685516894324e-09 4.3383191027146502e-05 0.010792299972888027 -4.8819949656170961e-10 6.6494412647756476e-10 5.2397612944938238e-10 0.0000000000000000 -100.53040969477119 -162.28305471776312 124.56781543385799 141.51484144144280 0.0000000000000000 0.0000000000000000 0.0000000000000000 0.0000000000000000 3.3955443605643199 3.8231838300623027 1.4283448092310846 1.1956720200618205 1628.8987820102634 1628.8988158708955 1.1951243778602856 
-81.096603422646936 -150.34099946921518 73.809626266418036 -81.096603422646936 -150.34099946921518 73.809626266418036 -231.17447664529720 -8.9554939850853966e-05 -5.7522597564938682e-05 -3.3405984873966902e-05 -237.98237593312385 3.7252417817157379e-08 7.0897325787910850e-09 6.2968930652829172e-05 0.011467964244990194 -7.1090806342402145e-11 6.4029925103694898e-10 2.4666279153581076e-10 0.011860425198990386 -78.400527573600002 -148.79743798799998 89.448228916799977 108.06316173413846 0.0000000000000000 0.0000000000000000 0.0000000000000000 0.0000000000000000 3.4151005346307861 3.8659463299569983 1.4517289222903320 1.1998368110458859 1851.9500074610185 1852.1451857765908 1.2049432964524203 
-82.898467452999057 -164.39218776179399 71.902382565010910 -82.898467452999057 -164.39218776179402 71.902382565010925 -380.87624923093790 -4.2692894313173278e-05 -0.00013155474881814102 -6.1510793632697157e-05 -384.19660366589295 3.7985132150808454e-08 8.5318798692668435e-09 6.3903178766366864e-05 0.011952504374728588 -2.3329204630042479e-10 8.1239482329549975e-10 3.2825056243552520e-10 0.011941446720797640 -80.149363288800018 -162.53464431600008 87.773009718400019 109.57810873427631 0.0000000000000000 0.0000000000000000 0.0000000000000000 0.0000000000000000 3.4169217094486872 3.8695428671699914 1.4534795934601756 1.1998368110458841 2106.8285146845219 2106.7807473482794 1.2056933240575280 
-87.170301567033121 -161.98825965245268 80.099822320464881 -87.170301567033178 -161.98825965245268 80.099822320464867 -297.49970533821499 -1.8167713437806741e-05 -7.5101798337510016e-05 -0.00013214556814196331 0.0000000000000000 3.9722222178184552e-08 8.2851536742367671e-09 5.9887728337315593e-05 0.011689357395499806 -4.4536480727672619e-11 2.7696051753560824e-10 4.6928438553532125e-10 0.0000000000000000 -84.295478612813938 -160.18443337667750 94.973195224810283 106.11323630727971 0.0000000000000000 0.0000000000000000 0.0000000000000000 0.0000000000000000 3.3755299292302712 3.7850596370399634 1.4104073168696138 1.1898378246273547 1828.2197731168437 1828.2298729469981 1.1874798323367275 
-89.414891234181184 -152.99297042877282 77.437191321288935 -89.414891234181155 -152.99297042877285 77.437191321288978 -271.69035725633211 -3.0783833890249725e-05 -0.00010276094554553245 -0.00011691012007947518 0.0000000000000000 4.0634955178475707e-08 7.3619215168463378e-09 6.1191996877596466e-05 0.011709840687926366 3.6854756250108814e-10 2.1023392710877361e-10 3.8438609921295083e-10 0.0000000000000000 -86.474010682800568 -151.39014911596544 92.634484883397832 94.367740677547317 0.0000000000000000 0.0000000000000000 0.0000000000000000 0.0000000000000000 3.3884226525649708 3.8112683994743866 1.4237138604197517 1.1922292776179562 1822.1357201551361 1822.0159049066913 1.1931919679467675 
-27.126405733030243 -133.60037767477485 129.81991781321091 -27.126405733030250 -133.60037767477482 129.81991781321088 -48.110798013272799 1.4779994948168531e-05 -2.1700787757568750e-05 0.00010538394516971707 -60.174886276271287 1.5306075740184614e-08 5.3715314418667495e-09 3.5532736461618697e-05 0.0087630009120235799 4.7833120190004929e-10 -2.1174637168329063e-10 -1.8457826669274537e-09 0.0085129275691118618 -26.018656529999991 -132.43089511199997 138.64462455200004 49.421240865332216 0.0000000000000000 0.0000000000000000 0.0000000000000000 0.0000000000000000 3.4032054301321941 3.8407453495244526 1.4383669089009801 1.2006305610764101 1485.4729831775062 1485.4730153998366 1.1993219995728095 
-33.799585794684127 -135.16117275550246 128.63396738657028 -33.799585794684134 -135.16117275550243 128.63396738657033 -38.169444009576317 -6.0678177143631080e-06 1.1045148612482700e-05 2.1846459297782225e-05 49.833755902664478 1.8019646774725118e-08 5.5317339597849013e-09 3.6113664833692383e-05 0.0093941180303590138 1.0645968686411548e-09 1.7134313109760309e-09 4.5225241220852757e-10 0.0047968872325947235 -32.495446914399992 -133.95681332000001 137.60295016000006 48.530522504776933 0.0000000000000000 0.0000000000000000 0.0000000000000000 0.0000000000000000 3.4142449465399460 3.8661374718704180 1.4528465371394745 1.2046398329963797 1504.1942122600626 1504.1942063902613 1.2053400798750493 
-29.598712296184630 -137.69986509860766 131.71598231829608 -29.598712296184644 -137.69986509860766 131.71598231829606 -46.351471451787631 1.8132523906380056e-05 3.6687177807576052e-05 2.5263758861567262e-05 -56.348351678836963 1.6311408668201463e-08 5.7922975305046975e-09 3.4603964408574939e-05 0.0097084560929310715 -1.3413693005894392e-10 1.5194176035629510e-09 7.8357003623792362e-10 0.0098786112661660395 -28.418203856399998 -136.43877710800004 140.31002455199999 44.353383947079159 0.0000000000000000 0.0000000000000000 0.0000000000000000 0.0000000000000000 3.4034664981808329 3.8410931853951675 1.4384382428226881 1.2012587427628489 1482.9963193255801 1482.9962716878731 1.1993542114073068 
-27.898847420312592 -130.60426991919391 135.74436207548229 -27.898847420312578 -130.60426991919391 135.74436207548223 -66.540891719876598 1.6795392495313744e-05 2.2429789364306038e-05 6.6538242529727784e-06 0.0000000000000000 1.5620179594222350e-08 5.0640347470931601e-09 3.2630694750679368e-05 0.0090671114540354456 2.9027841692674831e-10 3.8697396305579819e-10 -2.0509689911261368e-10 0.0000000000000000 -26.768365491316434 -129.50173712462359 143.84833436668455 49.139845408488213 0.0000000000000000 0.0000000000000000 0.0000000000000000 0.0000000000000000 3.4033180498600628 3.8418345106326925 1.4393837802196652 1.2006348298010434 1535.2842368130960 1535.2842417048380 1.1997417034644391 
-41.602539376819614 -65.115212766621170 147.24899779943490 -41.602539376819621 -65.115212766621184 147.24899779943490 -110.20982670682375 5.7931292593196813e-06 -1.3762086235694598e-05 3.8440017038442087e-05 -113.74018266606753 2.1192623211874203e-08 -1.6574521755075009e-09 2.6995240784088992e-05 0.0093875883354593657 -2.0836838704680998e-10 1.5944867260478399e-10 -3.7654941005843035e-10 0.0094096525302219437 -40.068761925200000 -65.476070995999990 153.95338104800004 156.95717166164070 0.0000000000000000 0.0000000000000000 0.0000000000000000 0.0000000000000000 3.4031187392269682 3.8411944273965450 1.4389347348648787 1.1989736259032917 1594.6024885407753 1594.6026388963862 1.1995577908861534 
-54.335255349384433 -59.161887529169000 141.90990768085570 -54.335255349384433 -59.161887529169000 141.90990768085570 -106.95595954525758 -2.1190386005273696e-05 8.5929823434665101e-07 1.3147616691327075e-05 -109.89790955268315 2.6370235106654146e-08 -2.2684802924999299e-09 2.9610551440129033e-05 0.0092476767206812714 1.6255063015720142e-10 -7.2398758245510680e-11 4.6746260401718054e-11 0.0092728850675604484 -52.426757905599978 -59.655776269200025 149.26381449600007 118.05125250056595 0.0000000000000000 0.0000000000000000 0.0000000000000000 0.0000000000000000 3.4045859408746062 3.8443748855840880 1.4406555666288094 1.1989536437727715 1593.5526652476333 1593.5522800149131 1.2002743763090484 
-36.558242580146590 -65.681567462898741 137.05507243687529 -36.558242580146597 -65.681567462898755 137.05507243687526 -95.309084496599681 9.8729701559302815e-06 -8.3863029080787322e-06 -3.8525830918006951e-06 -93.845896829414940 1.9141422002988406e-08 -1.5993328883467941e-09 3.1988653724113192e-05 0.0091920788282074985 -5.1494593593334278e-11 8.4381943310635621e-11 -1.0053340468551459e-10 0.0091758097951962596 -35.172917262399999 -66.029770167599992 144.99959110400002 155.12084301790807 0.0000000000000000 0.0000000000000000 0.0000000000000000 0.0000000000000000 3.4040994197100241 3.8428463510968460 1.4395840075447877 1.1995986328532442 1570.9340827958283 1570.9341545325731 1.1998266203976955 
-52.260259176800943 -66.254733205186568 133.87167815159421 -52.260259176800922 -66.254733205186554 133.87167815159412 -96.368285889724561 -1.4250763415942386e-05 1.5884179971805754e-05 4.7454742157293605e-06 0.0000000000000000 2.5526462055225352e-08 -1.5404946207553396e-09 3.3548014002349191e-05 0.0091831776781311335 3.9376957072929515e-11 -8.0499614858319649e-11 -1.0438043194425832e-10 0.0000000000000000 -50.412828244765279 -66.590128188430739 142.20347059834828 136.07757377940416 0.0000000000000000 0.0000000000000000 0.0000000000000000 0.0000000000000000 3.3982243688358795 3.8290199916658927 1.4315205265553361 1.1976204479311756 1552.0406090033023 1552.0405086396015 1.1964598562358579 
-97.745774782448720 -160.48703161523679 60.350958443648551 -97.745774782448720 -160.48703161523684 60.350958443648551 -520.28793632536701 -4.2648694783912324e-05 -2.4961603868810835e-05 -7.0515283275992112e-05 -520.07553770204584 4.4022611112026766e-08 8.1310702615411401e-09 6.9561551654828691e-05 0.012625011170826124 1.4484737668254656e-10 5.5440762759470217e-11 5.2074197898378797e-10 0.012725668440057484 -94.559718839999974 -158.71675115199997 77.626866652000004 109.98746742214213 0.0000000000000000 0.0000000000000000 0.0000000000000000 0.0000000000000000 3.4035035429963583 3.8417627076866201 1.4391043573271811 1.1998368110458868 2308.8700795319169 2308.4029577941578 1.1996245168494082 
-92.720297126204557 -160.23096367230491 65.828855652516012 -92.720297126204528 -160.23096367230488 65.828855652516026 -444.30725088422236 -8.9529317147228987e-05 -7.2446916200560749e-05 -0.00010635813133144806 -422.78458548661450 4.1979051124130251e-08 8.1047974997972005e-09 6.6878247430679494e-05 0.012172976236553060 3.8495338915719307e-10 1.4976777881622118e-10 8.2392590674028526e-10 0.012255862797772573 -89.682139475999989 -158.46640519600001 82.438353807199988 112.88451412247700 0.0000000000000000 0.0000000000000000 0.0000000000000000 0.0000000000000000 3.4062646015917433 3.8469186339743828 1.4414711998180143 1.1998368110458852 2175.3955859580301 2175.7940205785749 1.2006072294108923 
-106.14305187111032 -156.62808878882905 70.577136967605526 -106.14305187111037 -156.62808878882910 70.577136967605554 -432.58489010756233 -1.9302021021883692e-05 3.8051757879806015e-06 -0.00014038227758610274 0.0000000000000000 4.7437263672733820e-08 7.7350021943090042e-09 6.4552339736678732e-05 0.012188570274232032 4.5793995545452435e-10 3.5494390265737423e-12 6.9123537308096006e-10 0.0000000000000000 -102.70986659571734 -154.94403864466588 86.608986019839278 111.02505284862640 0.0000000000000000 0.0000000000000000 0.0000000000000000 0.0000000000000000 3.4051099122405897 3.8452927824834124 1.4410320417314886 1.1977439809041579 2167.9940193575899 2168.0227298414607 1.2004453244486308 
-103.77042423626047 -169.13749333420719 67.231175282772838 -103.77042423626050 -169.13749333420711 67.231175282772881 -475.48046147560115 -7.8878986324499901e-06 -1.1763610610675389e-05 -0.00013678157970350643 0.0000000000000000 4.6472454551249605e-08 9.0189018475683724e-09 6.6191332354748056e-05 0.012444102733892010 3.1462143350760651e-10 3.1303145389985074e-10 5.1793707046303415e-10 0.0000000000000000 -100.40706467681501 -167.17391327890167 83.670075146830683 105.53983917324770 0.0000000000000000 0.0000000000000000 0.0000000000000000 0.0000000000000000 3.4033020583999010 3.8413105946899440 1.4388476402124362 1.1982091736384091 2219.5795362518638 2218.9690243573805 1.1995203473979286 
-118.41851056779143 -100.22964559782319 81.920368310014666 -118.41851056779139 -100.22964559782319 81.920368310014652 -276.19647355231439 -1.8569632665418668e-05 -2.8108984098759038e-05 -7.9908480573554226e-05 -286.20076832168792 5.2428939644904068e-08 1.9465302703025600e-09 5.8995948418072430e-05 0.011192468704982372 3.0609985954813833e-10 5.0387914653160870e-10 1.5841497569097572e-09 0.011278932541705812 -114.62406224400000 -99.805851428000011 96.572263865600007 85.211636250682801 0.0000000000000000 0.0000000000000000 0.0000000000000000 0.0000000000000000 3.4055537799639004 3.8466814892062113 1.4419290789223838 1.1937314215610053 1887.9669775626501 1887.9668196454006 1.2007729270173226 
-114.77477644308541 -91.322398533652205 86.074774573042589 -114.77477644308540 -91.322398533652191 86.074774573042561 -234.79805134216818 -5.0075300259517989e-06 3.2053317048712554e-06 -8.4637959378705503e-05 -232.97096180505829 5.0947253305011486e-08 1.0323264465483817e-09 5.6960945670425651e-05 0.010593007581275918 2.0124325678834316e-11 -2.4794674747508661e-10 1.3692178460671889e-09 0.010378942956654357 -111.08756211600000 -91.097641973600034 100.22126851279998 99.535403830130534 0.0000000000000000 0.0000000000000000 0.0000000000000000 0.0000000000000000 3.4149473570790838 3.8656612487079172 1.4515938115076226 1.1975622473137701 1846.7550823097370 1846.7493468970752 1.2048310514941449 
-116.64665108544062 -98.030456909088855 95.371277436829345 -116.64665108544067 -98.030456909088826 95.371277436829345 -163.58433831645235 -1.2778301369554112e-05 -1.2568164261155182e-05 -0.00011096478826823835 -166.50204927341292 5.1708429316121851e-08 1.7208148239689081e-09 5.2407127945741643e-05 0.0096421684606741095 3.5716445071517432e-10 1.0150061151534511e-09 1.0524516665650905e-09 0.0095154965318827705 -112.90434805199999 -97.655804887999992 108.38681131359999 128.09762094244454 0.0000000000000000 0.0000000000000000 0.0000000000000000 0.0000000000000000 3.4050342536120932 3.8462579508513808 1.4421350644834985 1.1985515736140355 1704.1157171090772 1704.1156530123988 1.2008689988355183 
-110.72262709311995 -104.35722871958068 86.449224539437324 -110.72262709311998 -104.35722871958068 86.449224539437324 -225.04865788450698 -8.7529725888228725e-05 -1.3830089002964215e-05 -9.2735118452590956e-05 0.0000000000000000 4.9299497595356456e-08 2.3701598461656204e-09 5.6777524342521701e-05 0.010751496993928378 7.5168100896964303e-10 5.3468698391023137e-10 1.0204187783268988e-09 0.0000000000000000 -107.15466629968294 -103.84120130723400 100.55016500991876 102.24201981555134 0.0000000000000000 0.0000000000000000 0.0000000000000000 0.0000000000000000 3.3904303242627565 3.8085492811551207 1.4186291104954973 1.1906585886411589 1744.2294207493107 1744.2361629990701 1.1910358629138704 
-28.007907305326619 -116.15887748639651 89.555895928164077 -28.007907305326622 -116.15887748639658 89.555895928164034 0.38987474686318291 1.8827466501451859e-05 2.4319080007719326e-06 -2.4206467859938876e-05 0.0000000000000000 -8.5157820353718168e-07 1.6986170241705091e-06 5.9405090514403276e-05 0.011590311726031165 -3.8273164710634273e-09 4.0119348875336939e-09 8.9599726160591028e-09 0.0000000000000000 -26.889884864405381 -115.37486796036181 103.37575244326078 96.382960025775517 0.0000000000000000 0.0000000000000000 0.0000000000000000 0.0000000000000000 3.4288511612651624 3.8976380487713738 1.4698197550265708 1.2107593437246682 1457.8516434834646 1457.8521667952662 1.2123593856430688 
-113.20948236222100 -104.13278546136517 145.24986322785330 -113.20948236222101 -104.13278546136513 145.24986322785327 -89.292711438362986 -3.1521253948610055e-06 -9.0015152987424417e-06 -2.3812701091288602e-06 -89.101228523106570 5.0310749122317588e-08 2.3471213861370188e-09 2.7974500888205966e-05 0.0092411017009453051 1.7884751604337535e-11 1.3361461304918010e-11 1.2373852085552913e-10 0.0092394200359721575 -109.56833416800004 -103.62177336400003 152.19744990400002 70.302883591683823 0.0000000000000000 0.0000000000000000 0.0000000000000000 0.0000000000000000 3.4024238025110587 3.8387524881241650 1.4371301256308111 1.1989369565861092 1554.7647938983098 1554.7177517883019 1.1988043380595566 