# For a description of the Tecplot format see the Tecplot User's guide.
#
Variables=x,y,z,s_u,s_v,s_w,s_p,mono_f_vel_u,mono_f_vel_v,mono_f_vel_w,const,u_nu,v_nu,w_nu,p_nu,x_nu,y_nu,z_nu,const,u_ref,v_ref,w_ref,vol_ref,x_ref,y_ref,z_ref,const,I1,I2,I3,J,p1,p2,p3
Zone f=fepoint, n=356, e=1130, et=brick, c=black
-67.2908 -97.7664 83.7702 -67.290849718732431 -97.766419630454507 83.770177173681944 -71.682532191401137 -9.4021474773942162e-06 1.5129542928840932e-05 -5.7590550100894650e-06 -4.6457430586173034e-20 2.8202377100328140e-09 1.1469936112007416e-10 2.1249990560079368e-05 0.00045908837895724809 2.4796932848895536e-11 -3.6703249954752809e-11 1.5823950245287857e-11 1.6838040926712239e-21 -65.196340044403073 -97.429114013214090 96.966749492950399 1962.9112535355127 0.0000000000000000 0.0000000000000000 0.0000000000000000 0.0000000000000000 3.3639431420005184 3.7563576730439121 1.3930428111809092 1.1804713398072300 823.25040815514899 847.26279261724653 1.1802725133395675 
-77.484485608468034 -131.31487748068687 69.225936399404219 -77.484485608468034 -131.31487748068687 69.225936399404205 -81.305146643128722 -4.3078888412678279e-05 -4.7787511805456817e-06 4.2632679401879359e-06 -41.219048832926994 3.1897210428510898e-09 3.4785041513885062e-10 2.3856178273717887e-05 0.00047181236806357224 1.0019077301062404e-10 5.7327732802395747e-13 -5.4966160266508168e-12 0.00040934408148058342 -75.115563256000002 -130.29184138500000 84.040991542000015 2013.9639834346967 0.0000000000000000 0.0000000000000000 0.0000000000000000 0.0000000000000000 3.3642009670088253 3.7569294412285923 1.3933591318504204 1.1804713398072300 850.53330825978765 840.75168286464225 1.1804066223263268 
-64.911422292724197 -122.41510271038518 60.984165739819090 -64.911422292724197 -122.41510271038520 60.984165739819097 -68.288990053826936 1.7851600573206596e-05 -4.9137557418792970e-06 7.2195974683993803e-06 -45.678732160935560 2.7339780439561423e-09 2.8600433132908170e-10 2.5333024119333913e-05 0.00046196106372024657 -3.6766149588342091e-11 -2.2756895243548744e-11 1.2685104858169408e-12 0.00036561797191123871 -62.880966804699995 -121.57397801100001 76.716364957060009 1170.9855824450976 0.0000000000000000 0.0000000000000000 0.0000000000000000 0.0000000000000000 3.3646689730668835 3.7578623236162012 1.3938225710124077 1.1804713398072293 808.99952914419941 805.65586141276515 1.1806023166195809 
-57.495041998616237 -132.85748477579841 66.807417087617580 -57.495041998616223 -132.85748477579841 66.807417087617566 -54.574734317216802 3.2974673978009117e-05 4.2497561580947482e-06 -1.8208892419449590e-05 -64.711017037168389 2.4651592989144433e-09 3.5858493951934639e-10 2.4289553618217500e-05 0.00042290103478919030 -5.4692754351330109e-11 6.1526604501339972e-12 5.2662256054139351e-11 0.00053359089408266697 -55.664235468099989 -131.80291778700004 81.891605011000010 1977.7795635233642 0.0000000000000000 0.0000000000000000 0.0000000000000000 0.0000000000000000 3.3637452656752163 3.7560095467856032 1.3928956122314380 1.1804713398072304 804.02407952889905 785.97559420685604 1.1802108658521784 
-125.58490688106517 -110.83325364754496 80.356375779683773 -125.58490688106517 -110.83325364754498 80.356375779683759 -145.79461129810920 -2.6034998693769640e-06 6.6319673185989391e-06 -3.7566335608294152e-05 -160.16736049505224 4.9332374851829286e-09 2.0550605661640020e-10 2.1861710852277838e-05 0.00054922306148970531 -5.5134734154742962e-12 -1.9860471124789343e-11 2.3337634017259193e-11 0.00055764042342227530 -121.92112118800000 -110.22886194300000 93.932835849999989 1979.3501102100577 0.0000000000000000 0.0000000000000000 0.0000000000000000 0.0000000000000000 3.3644617926693767 3.7574522297412676 1.3936204199552436 1.1804713398072304 987.73911431101135 983.30999410020399 1.1805170455067808 
-125.45427770052518 -129.22731599593942 84.965256269705264 -125.45427770052517 -129.22731599593948 84.965256269705236 -134.59248526882109 -3.1573243534447884e-06 -2.5544775442339024e-06 -3.0287584377592418e-05 -154.22851521596201 4.9285008296706678e-09 3.3335534332934458e-10 2.1035843907668547e-05 0.00053263812359974566 -1.7029323583952098e-12 -3.6973895577996197e-12 8.6287324076944683e-12 0.00049953282538467349 -121.79400854500000 -128.24694965699999 98.028840211000002 2171.1766123060684 0.0000000000000000 0.0000000000000000 0.0000000000000000 0.0000000000000000 3.3645952967324324 3.7577108127805574 1.3937450957851747 1.1804713398072300 958.02350310562372 954.24402375522948 1.1805694878177311 
-89.304695974622419 -120.13934056295653 100.63159459559779 -89.304695974622476 -120.13934056295649 100.63159459559772 -87.818165863581328 -2.2339482160078560e-05 3.5720582201995572e-07 -2.3641101255996124e-05 -1.9556430362264910e-19 3.6181765361575917e-09 2.7019164683395047e-10 1.8228587126856155e-05 0.00047225460361498343 5.6508483626539415e-11 -6.4342932640891328e-13 2.1462056107236674e-11 1.1516040904817423e-20 -86.617573559112500 -119.34473244186394 111.95182872039791 1753.2209356453191 0.0000000000000000 0.0000000000000000 0.0000000000000000 0.0000000000000000 3.3638096247568674 3.7561499335999429 1.3929711301768322 1.1804713398072291 868.99977912825818 866.41180605601789 1.1802422443165381 
-124.56369239715973 -119.52621649208417 99.581339965507027 -124.56369239715971 -119.52621649208416 99.581339965507027 -106.84890298626726 -1.7686663286393432e-06 6.6531496375636084e-06 -1.8788386854752280e-05 -100.76812718593521 4.8962222054527152e-09 2.6592128499203227e-10 1.8416782637586948e-05 0.00049866900794650910 -5.6253242162698235e-13 -1.4328788456540461e-11 1.7815693444638900e-11 0.00049799971051568703 -120.92739779800000 -118.74414062699999 111.01844640460000 1486.9218523490313 0.0000000000000000 0.0000000000000000 0.0000000000000000 0.0000000000000000 3.3643710311303545 3.7571937883666680 1.3934496398612071 1.1804713398072295 902.76245056505638 954.38756662109324 1.1804446462649576 
-45.277003462842352 -164.88518242796064 117.49300653755645 -45.277003462842352 -164.88518242796059 117.49300653755648 -42.662747256978832 3.7928042674568957e-05 -3.9801145776085621e-05 1.1634758647348043e-05 0.0000000000000000 2.0222848950979259e-09 5.8117932688617202e-10 1.5207184667076490e-05 0.00037693197464023516 -9.8976248061337041e-11 1.0861810427088505e-10 -2.0285511040470059e-11 0.0000000000000000 -43.775106529693616 -163.17596929916377 126.93690307769774 1219.2399513932846 0.0000000000000000 0.0000000000000000 0.0000000000000000 0.0000000000000000 3.3616758088715120 3.7511185503699007 1.3900383495898689 1.1806164333450548 767.17930803200591 766.94820286113111 1.1790011262975606 
-16.001737773735226 -144.82312721423565 130.87711561285877 -16.001737773735222 -144.82312721423565 130.87711561285874 -38.252062823819287 7.4695043562460329e-06 -2.9082728415914423e-05 3.8303527106716306e-06 -26.905406163687850 9.6113095260363934e-10 4.4175263447243651e-10 1.2808881372450287e-05 0.00037798446915581960 -1.8084363177965584e-11 7.5452822700372166e-11 -1.6212070310232652e-11 0.00038132771072292251 -15.287930992899994 -143.52398249399997 138.83162876200001 1142.5393367497743 0.0000000000000000 0.0000000000000000 0.0000000000000000 0.0000000000000000 3.3614048635546876 3.7508705937599340 1.3900802373939418 1.1802609875502434 778.24294182375104 778.94740172670015 1.1790180322368720 
-45.277003462842352 -164.88518242796064 134.35441847951506 -45.277003462842387 -164.88518242796067 134.35441847951512 -67.247640143271553 6.7266608445180608e-06 -2.1611240123313567e-05 8.7716449803872526e-06 0.0000000000000000 2.0222848950979251e-09 5.8117932688617202e-10 1.2185782214402252e-05 0.00043565434738805035 -1.4701785285168928e-11 6.6797070782243114e-11 -2.9400794270660821e-11 0.0000000000000000 -43.775106529693623 -163.17596929916371 141.92197743499761 2138.0712005850128 0.0000000000000000 0.0000000000000000 0.0000000000000000 0.0000000000000000 3.3636963108865237 3.7558056614677935 1.3927347341604186 1.1803299687309670 837.78686460286826 836.73010700837392 1.1801420989325140 
-6.2121037822570848 -162.68643582319626 124.79853473521021 -6.2121037822570866 -162.68643582319629 124.79853473521024 -100.27581718428955 2.4130810694832091e-05 -2.4568510258375753e-05 8.5705016684721913e-06 -110.90501677148686 6.0628252418482020e-10 5.6589954944286092e-10 1.3898104455734028e-05 0.00046708624173027465 -5.9329617491223064e-11 6.4672313473031342e-11 -1.5980753081211014e-11 0.00046675576559907216 -5.7618339484599987 -161.02216507500000 133.42947224320002 1741.2893742699428 0.0000000000000000 0.0000000000000000 0.0000000000000000 0.0000000000000000 3.3648833320444442 3.7584021499969662 1.3941535114351613 1.1804713398072282 899.66937393311844 899.71696244202042 1.1807428007963170 
-10.189423800379894 -107.50462999815262 181.47392012836696 -10.189423800379894 -107.50462999815262 181.47392012836693 -98.234404947067247 -6.8527954545720535e-06 5.7957351723350121e-06 1.2024914632773663e-05 -101.95116220055682 7.5044981340255390e-10 1.8238011101345819e-10 3.7424218142234618e-06 0.00050370051248626289 6.3377131208533491e-12 -1.6116410021155106e-11 -1.6251120526005857e-11 0.00051637679777245327 -9.6320845117000005 -106.96827536100001 183.79802188000005 966.19067172024859 0.0000000000000000 0.0000000000000000 0.0000000000000000 0.0000000000000000 3.3643577994477103 3.7572299095102086 1.3935016116969832 1.1804713398072280 892.73395330528979 891.83564073434786 1.1804666637416295 
-18.131321630558194 -109.05629127158090 192.69263476321447 -18.131321630558197 -109.05629127158090 192.69263476321450 -109.02726304973096 -8.3743004816140912e-06 5.1892662611534137e-06 3.9976554237894504e-06 -115.23040026245528 1.0383223725263235e-09 1.9315637977967986e-10 1.7321363259270579e-06 0.00051929199919112953 1.5480555753501220e-11 -1.6233505902707381e-11 -1.2612664010987407e-11 0.00053763150559736877 -17.360186452300006 -108.48822067799998 193.76831817399997 1163.9017450188298 0.0000000000000000 0.0000000000000000 0.0000000000000000 0.0000000000000000 3.3643350670263255 3.7571807445488679 1.3934750415627148 1.1804713398072288 916.37558325985754 915.19748050177782 1.1804553914373164 
-45.277003462842352 -120.13934056295653 168.07724236343242 -45.277003462842423 -120.13934056295672 168.07724236343219 -101.94560608881474 1.5072844511614862e-06 1.2911380018593857e-05 1.8147987483053068e-05 0.0000000000000000 2.0222848950979255e-09 2.7019164683395047e-10 6.1429773232646312e-06 0.00050497739374650826 -2.8142792164924845e-12 -2.8370175027793465e-11 -1.5973422221570982e-11 0.0000000000000000 -43.775106529693538 -119.34473244186404 171.89212614959743 1771.3229973881550 0.0000000000000000 0.0000000000000000 0.0000000000000000 0.0000000000000000 3.3645311103922566 3.7575900180492816 1.3936887365374668 1.1804713398072286 898.61757475988213 902.13867800671687 1.1805461803137354 
-9.7315558629036136 -125.05743480336470 187.80905231135796 -9.7315558629036136 -125.05743480336470 187.80905231135799 -100.57227119072539 -4.9731588457028211e-06 -5.7042629067473732e-06 9.8127567970946527e-06 -100.22950533667496 7.3385419963045706e-10 3.0437274922689994e-10 2.6072272198973678e-06 0.00050818385371155528 -1.1664459886768280e-12 1.3085072468885626e-11 -1.4773820760657842e-11 0.00051478580505603456 -9.1865423791000023 -124.16230083600000 189.42818068000000 961.51487702825557 0.0000000000000000 0.0000000000000000 0.0000000000000000 0.0000000000000000 3.3643234638049218 3.7571565882528057 1.3934624576963850 1.1804713398072284 897.89656532807862 896.76297353307189 1.1804500442203041 
-45.277003462842352 -164.88518242796064 100.63159459559779 -45.277003462842359 -164.88518242796059 100.63159459559773 -75.061314126400035 1.4637895826764025e-05 -6.1920300226781888e-05 -4.7174434583480970e-05 1.2750094187411620e-18 2.0222848950979255e-09 5.8117932688617212e-10 1.8228587126856155e-05 0.00042038846703163884 -3.9367597247474750e-11 1.5928778128101595e-10 4.5572470476839148e-11 -7.6027644814005368e-20 -43.775106529693623 -163.17596929916374 111.95182872039793 1372.1117852990953 0.0000000000000000 0.0000000000000000 0.0000000000000000 0.0000000000000000 3.3671703102377775 3.7636375493701264 1.3971236735848001 1.1814206250535755 849.15581699492077 847.44374900098057 1.1819987688002351 
-62.597110207081649 -162.17483839578003 76.901056779441106 -62.597110207081656 -162.17483839578006 76.901056779441134 -132.68209612983688 -1.9001811174569938e-05 -5.8694034342439473e-05 -1.5579099209847180e-05 -137.14318322181310 2.6500938110629590e-09 5.6232907219566641e-10 2.2480870697449973e-05 0.00050075936734496199 3.7494752508539682e-11 1.2634421420590044e-10 5.7479305780187303e-11 0.00056701450939085991 -60.628956000399988 -160.52102469899998 90.862024679199990 1556.8824791929137 0.0000000000000000 0.0000000000000000 0.0000000000000000 0.0000000000000000 3.3609791710773265 3.7504126786678644 1.3900664851818094 1.1797243472816177 961.26049117251523 964.64720605820582 1.1790102433247012 
-45.335350176582565 -169.32948267177883 73.961397427363181 -45.335350176582558 -169.32948267177883 73.961397427363181 -163.23604550622045 3.7935668833740466e-06 -6.2286690902611130e-05 -1.0823425735780639e-05 -129.31627227484088 2.0244000920044414e-09 6.1206395507440448e-10 2.3007629316396105e-05 0.00053540260905660662 4.0351402775511654e-13 1.3428534928616081e-10 4.1351495204747094e-11 0.00055237868355539801 -43.831882549900001 -167.52942804599996 88.249490561200005 1643.6708107299999 0.0000000000000000 0.0000000000000000 0.0000000000000000 0.0000000000000000 3.3644199596897462 3.7572622946283563 1.3934683695929488 1.1804713398072288 1004.4568546922657 1003.5788475114313 1.1804529613361379 
-45.277003462842352 -187.25810336046271 100.63159459559779 -45.277003462842394 -187.25810336046283 100.63159459559768 -173.14797326917966 -2.6536250497247177e-07 -2.9529463743500349e-05 -2.7129816916320692e-05 -8.1372816936306046e-20 2.0222848950979255e-09 7.3667361100149265e-10 1.8228587126856158e-05 0.00054941232468290013 8.4647775666068342e-12 7.6433836616590671e-11 5.9724363822953936e-12 4.7141163794813502e-21 -43.775106529693623 -185.09158772781387 111.95182872039791 1529.2408403851955 0.0000000000000000 0.0000000000000000 0.0000000000000000 0.0000000000000000 3.3632272960115737 3.7547766922786794 1.3921701335199097 1.1802444413408686 1026.8993147699514 1028.2803417823261 1.1799022325100519 
-89.304695974622419 -142.51226149545860 134.35441847951506 -89.304695974622476 -142.51226149545860 134.35441847951506 -94.456402025825682 -7.7354378971679432e-06 -8.9738697374217466e-06 5.8546209259698157e-06 0.0000000000000000 3.6181765361575913e-09 4.2568593094927110e-10 1.2185782214402252e-05 0.00047853947079588171 2.3495719538518835e-11 2.0110603242076782e-11 -1.1286316322035308e-11 0.0000000000000000 -86.617573559112486 -141.26035087051392 141.92197743499761 1776.4810640138739 0.0000000000000000 0.0000000000000000 0.0000000000000000 0.0000000000000000 3.3625303383704037 3.7531995280010912 1.3912864257919042 1.1796387523308760 887.67352356112417 893.43832304242562 1.1795257476184158 
-67.290849718732389 -164.88518242796064 134.35441847951506 -67.290849718732389 -164.88518242796070 134.35441847951518 -84.041973399819142 -1.9793778544925301e-05 -8.7512562027368548e-06 9.1716037017551301e-06 -1.1150159200716853e-20 2.8202377100328140e-09 5.8117932688617192e-10 1.2185782214402255e-05 0.00046006268626408334 5.2473610449710832e-11 3.2090316668647982e-11 -2.2244430815511760e-11 2.1185210118274098e-22 -65.196340044403016 -163.17596929916368 141.92197743499761 1909.2349168221303 0.0000000000000000 0.0000000000000000 0.0000000000000000 0.0000000000000000 3.3622894427747849 3.7526989527512482 1.3910242373057362 1.1799476795840480 864.95784609174643 867.53092723225586 1.1794169654671904 
-89.304695974622419 -164.88518242796064 117.49300653755645 -89.304695974622476 -164.88518242796061 117.49300653755651 -114.56145001071079 -1.3389255214524598e-05 -1.3666637564279270e-05 -9.5233624540953578e-06 0.0000000000000000 3.6181765361575913e-09 5.8117932688617202e-10 1.5207184667076492e-05 0.00049543579670307549 3.5576401999605505e-11 3.2693530522191490e-11 7.6221297802701626e-12 0.0000000000000000 -86.617573559112500 -163.17596929916371 126.93690307769781 1465.4254424602818 0.0000000000000000 0.0000000000000000 0.0000000000000000 0.0000000000000000 3.3655987611345197 3.7598612774300944 1.3948963128840497 1.1806260308368255 924.18408944871328 930.06452321632582 1.1810563320288034 
-89.304695974622419 -142.51226149545860 117.49300653755645 -89.304695974622476 -142.51226149545863 117.49300653755651 -72.828498823241659 -3.3383039443557933e-05 -2.4806080355067052e-05 6.1942083662182728e-06 0.0000000000000000 3.6181765361575921e-09 4.2568593094927104e-10 1.5207184667076490e-05 0.00044126458585414213 9.3655973558618679e-11 5.9708124946837377e-11 3.2608360832160508e-12 0.0000000000000000 -86.617573559112472 -141.26035087051395 126.93690307769782 1314.1623031803638 0.0000000000000000 0.0000000000000000 0.0000000000000000 0.0000000000000000 3.3628414820034997 3.7534225372559140 1.3911793987376766 1.1802963470198899 838.96444648861109 829.73933550447964 1.1794858098908703 
-46.319720292193558 -110.77873916757439 36.838973738324803 -46.319720292193558 -110.77873916757441 36.838973738324803 -204.82318975893619 1.3556988655909857e-05 1.6945504533533859e-05 -2.6172284835457971e-05 -207.03955517188930 2.0600819938820791e-09 2.0513701848301482e-10 2.9659609730003925e-05 0.00062267080441232297 8.5890677173894216e-12 -1.0163647339665145e-11 4.2242619158049562e-11 0.00059375294952632943 -44.789753421999997 -110.17546173899997 55.258049440000001 1011.3304348559651 0.0000000000000000 0.0000000000000000 0.0000000000000000 0.0000000000000000 3.3643816586866113 3.7572789701555247 1.3935268195210155 1.1804713398072293 1079.8157465990719 1079.6968074614720 1.1804773558595900 
-58.485920129395559 -99.100193616310847 34.012858342651327 -58.485920129395545 -99.100193616310833 34.012858342651306 -238.45954331620334 -1.1033995995949751e-05 2.0812035536497895e-05 -3.5508461031454393e-05 -240.21693604252684 2.5010776782963262e-09 1.2396683679583023e-10 3.0166022362720920e-05 0.00066936046135782014 4.5381433193070594e-11 -9.4877173912001618e-12 4.1376970452597526e-11 0.00072074443762182522 -56.628439159600013 -98.735625658800004 52.746424109200007 1395.9618554683195 0.0000000000000000 0.0000000000000000 0.0000000000000000 0.0000000000000000 3.3643709301691009 3.7572556778060187 1.3935141958244774 1.1804713398072293 1141.5883733871804 1141.4553990351558 1.1804720204152479 
-61.562673386883219 -105.95935416206352 45.910904572436621 -61.562673386883233 -105.95935416206356 45.910904572436614 -176.75787764893704 4.5429054759227770e-06 6.6345701194100141e-05 -6.7127204976069249e-05 -75.818015908606895 2.6125995811199232e-09 1.7163803711639503e-10 2.8034007190314018e-05 0.00059721832746816072 4.4785601670048377e-11 -5.7006947909792298e-11 1.3254729583295022e-10 0.00081311836795937070 -59.622366219399986 -105.45458496299997 63.320455991800024 1631.5611169842575 0.0000000000000000 0.0000000000000000 0.0000000000000000 0.0000000000000000 3.3643378997434130 3.7571865293280946 1.3934780130059854 1.1804713398072293 1021.4990373930997 1022.4481458195058 1.1804567268033828 
-20.008640190489142 -88.220952331860673 46.383353160269301 -20.008640190489139 -88.220952331860659 46.383353160269287 -187.95530911893741 -8.3651684438308309e-06 3.4088361094325622e-06 -5.2341315126006370e-05 -192.06984455610490 1.1063721050419417e-09 4.8352433168474818e-11 2.7949348957889694e-05 0.00060473033637395836 4.8134310792306143e-12 -4.3539964731045453e-11 5.4439484593162961e-12 0.00060546899943350358 -19.186967596599999 -88.078756066199972 63.740330510200010 1361.9683039629940 0.0000000000000000 0.0000000000000000 0.0000000000000000 0.0000000000000000 3.3643584289422850 3.7572293114872743 1.3935002972231607 1.1804713398072293 1055.2681815578710 1055.5769912649373 1.1804661517251789 
-60.172114975860254 -180.07827042443927 69.086527577930667 -60.172114975860261 -180.07827042443930 69.086527577930639 -218.65382297840210 -4.3426887067128014e-06 -1.2452667595749089e-05 -1.6498069310781629e-05 -231.47996515622833 2.5621941235343115e-09 6.8678596143456616e-10 2.3881158991656548e-05 0.00060428902628017415 1.2104763559527635e-11 6.9186436833019233e-12 4.6173590798554611e-11 0.00068296493047649445 -58.269241640800026 -178.05851057700005 83.917096131400029 1498.9894771187792 0.0000000000000000 0.0000000000000000 0.0000000000000000 0.0000000000000000 3.3656139593225713 3.7599761894250801 1.3950010834945050 1.1804713398072297 1110.1742393637464 1111.7170145068778 1.1811028528603804 
-76.174902285310296 -186.53004006795030 62.046363418523462 -76.174902285310296 -186.53004006795030 62.046363418523462 -228.22689623229431 4.5786211684240105e-07 -1.1255821679306130e-05 -3.6238589813608156e-06 -231.03252816525040 3.1422590085483644e-09 7.3161809943655964e-10 2.5142688532042715e-05 0.00062169239790017263 -5.4007785696713388e-12 8.3609508741684423e-12 1.0901938407062922e-11 0.00060096255500284687 -73.841233915900020 -184.37840604900001 77.660361299260003 1118.5962234853314 0.0000000000000000 0.0000000000000000 0.0000000000000000 0.0000000000000000 3.3642652798961641 3.7569193477498071 1.3932775299760871 1.1804713398072297 1127.2903562287545 1122.9779581487055 1.1803713509429146 
-71.353100718538940 -213.58361319362925 77.536652977709679 -71.353100718538940 -213.58361319362922 77.536652977709664 -223.50647635034181 2.6254128099928904e-06 2.2836458242411942e-06 -1.5595420402786228e-05 -223.80397554217231 2.9674765977816264e-09 9.1962726322947229e-10 2.2366977987076098e-05 0.00061134459482806137 -4.1824489134816994e-12 2.0654497235020200e-12 9.0634080699325310e-12 0.00061533229104893659 -69.149235247299998 -210.87900414000003 91.426891745200010 1316.5891353856312 0.0000000000000000 0.0000000000000000 0.0000000000000000 0.0000000000000000 3.3645628127747504 3.7577816577171741 1.3938549182842157 1.1804713398072302 1114.8444152565185 1117.0851145010913 1.1806168947608753 
-88.774119569792518 -209.20301256886057 81.543178756699390 -88.774119569792532 -209.20301256886066 81.543178756699390 -209.88613455389401 1.3261559195949263e-05 -6.3769925210950155e-06 -1.8577506197196937e-05 -230.18142437985898 3.5989421443005649e-09 8.8918761242950950e-10 2.1649047205585251e-05 0.00059997646040800556 -2.1337169733128592e-11 1.4253985516027369e-11 -1.0975135763420250e-11 0.00061140359749332907 -86.101280271099995 -206.58794299200005 94.987571415399998 1849.5997999231981 0.0000000000000000 0.0000000000000000 0.0000000000000000 0.0000000000000000 3.3652710743993519 3.7592284786505537 1.3945938678618410 1.1804713398072300 1101.5264832443313 1124.5403670168348 1.1809301556847718 
-76.083330573323721 -214.59575266441163 92.701659356981679 -76.083330573323721 -214.59575266441161 92.701659356981679 -200.82991590059106 4.0818695283414705e-07 8.1265881639301457e-07 -6.4245683871358108e-06 -208.09836306335856 3.1389398857939455e-09 9.2667851170347149e-10 1.9649555063949720e-05 0.00058679195269181316 -1.9439425955913242e-12 -8.6901436656714018e-13 9.0828230550313249e-12 0.00059665932448764805 -73.752127314399999 -211.87045547999998 104.90433651700000 935.08208219187054 0.0000000000000000 0.0000000000000000 0.0000000000000000 0.0000000000000000 3.3651809292711548 3.7591699999426034 1.3946316162096457 1.1804713398072306 1085.2871214658237 1087.8550841780627 1.1809465948739841 
-67.290849718732389 -187.25810336046271 100.63159459559779 -67.290849718732389 -187.25810336046283 100.63159459559768 -169.73732128715892 6.7088210420313080e-06 -2.4639069732645875e-05 -2.9406147741903837e-05 -6.6565949947379105e-19 2.8202377100328140e-09 7.3667361100149244e-10 1.8228587126856155e-05 0.00055294524874490271 -6.2843910837737116e-12 6.1403372391890500e-11 8.6651970303637006e-12 3.9328056228362190e-20 -65.196340044403016 -185.09158772781387 111.95182872039793 1710.5411337269345 0.0000000000000000 0.0000000000000000 0.0000000000000000 0.0000000000000000 3.3612342213455508 3.7499799319911440 1.3893312238622504 1.1795864860317846 1016.1342756088122 990.40107595601944 1.1786961801020790 
-85.354110711121436 -210.30635895805528 101.72402245050978 -85.354110711121422 -210.30635895805523 101.72402245050978 -179.78188047972148 8.7297396863417784e-06 -7.0078801387660363e-06 -2.3388669619317694e-05 -174.92667838680569 3.4749728650140814e-09 8.9685614490520048e-10 1.8032834596226621e-05 0.00056660522435112728 -1.8260436842345903e-11 9.4109936272371283e-12 2.1402514909346446e-11 0.00056582035982871183 -82.773338050899994 -207.66873698099997 112.92269122540003 1217.6379143129484 0.0000000000000000 0.0000000000000000 0.0000000000000000 0.0000000000000000 3.3654909371292558 3.7597834914449382 1.3949340213957611 1.1804713398072304 1032.5022193355856 1047.1288881961684 1.1810740771392607 
-42.607638464599447 -130.79308241453492 55.069061439787831 -42.607638464599454 -130.79308241453489 55.069061439787824 -126.45083438359005 1.9881201015811193e-05 7.4638707874426076e-06 -2.9576220400963864e-05 -132.53107588706558 1.9255260719219791e-09 3.4422664718647411e-10 2.6392953781595452e-05 0.00051737660720944023 -2.0024271214799013e-11 9.6906652807410241e-12 6.4216501977388303e-11 0.00057777657636840548 -41.177600837199989 -129.78071180999999 71.459493345580000 2063.2509735647445 0.0000000000000000 0.0000000000000000 0.0000000000000000 0.0000000000000000 3.3645188082433397 3.7575761657895987 1.3936875683292897 1.1804713398072297 953.65503029086165 953.16423533942407 1.1805452631133699 
-23.458835361590811 -135.25926696065599 44.450010162197700 -23.458835361590811 -135.25926696065599 44.450010162197707 -171.60659246041547 1.0029301741574449e-05 4.7856778547553333e-06 -1.1751203525390082e-05 -174.53478745143778 1.2314337327623548e-09 3.7527425611472154e-10 2.8295785384102604e-05 0.00057052193652696529 -6.6155118165440777e-12 5.8997562918154802e-12 1.3828325789035957e-11 0.00056653190998767527 -22.544283513700002 -134.15560754399999 62.022129882400009 885.37450795058874 0.0000000000000000 0.0000000000000000 0.0000000000000000 0.0000000000000000 3.3642954169535004 3.7570906403033062 1.3934242118599884 1.1804713398072288 1020.6333895300960 1020.5435367592480 1.1804340180554729 
-11.459602685875828 -103.94441511392021 51.137847597266436 -11.459602685875829 -103.94441511392023 51.137847597266415 -166.13950641485562 -6.3737961165768758e-06 -8.1480527162017607e-06 -4.3671202670233178e-05 -157.63656912840682 7.9649198347908623e-10 1.5762524618878615e-10 2.7097389395436270e-05 0.00056627310119844486 -2.9697839781747634e-12 -1.6935800329059647e-11 1.0316004434578404e-11 0.00056041275584720399 -10.868070181599997 -103.48083126899998 67.965744901059992 1215.6056386602015 0.0000000000000000 0.0000000000000000 0.0000000000000000 0.0000000000000000 3.3643305315314844 3.7571695079051732 1.3934682819016400 1.1804713398072291 1021.8667812960359 1022.7734710304644 1.1804526319897053 
-29.789990060065701 -141.67520191103947 59.723310670082121 -29.789990060065698 -141.67520191103947 59.723310670082114 -129.96649907840271 1.1848489694402096e-05 1.5495182836919809e-05 -3.2008614550665825e-05 -125.34284386421236 1.4609210507998682e-09 4.1987768817364202e-10 2.5558957194249391e-05 0.00051315856468950218 -1.3430369733083909e-11 2.4817644537135174e-12 5.8652947945803651e-11 0.00058271118010896959 -28.705003527699994 -140.44040078399999 75.595817814339981 2059.5227122681431 0.0000000000000000 0.0000000000000000 0.0000000000000000 0.0000000000000000 3.3645717713504557 3.7576988631991322 1.3937579581177404 1.1804713398072295 949.11428440493569 947.51824204063109 1.1805749571683826 
-105.70085748227503 -195.78063267176893 85.567417048119140 -105.70085748227505 -195.78063267176893 85.567417048119168 -187.78338014280499 -1.5027668559627840e-06 -1.8134872336354446e-06 -1.7136813897735618e-05 -202.01360549164266 4.2124926880049429e-09 7.9591377932786145e-10 2.0927942500748031e-05 0.00058129419559266738 1.2246423166309311e-12 -5.4334071843649891e-12 -9.4436026890354558e-13 0.00057875171561346482 -102.57235039900000 -193.43991653999998 98.563992549999980 2518.6337191607704 0.0000000000000000 0.0000000000000000 0.0000000000000000 0.0000000000000000 3.3649672554906145 3.7586669740693774 1.3943387436421089 1.1804713398072295 1054.5066232709612 987.34631335331494 1.1808221429964127 
-84.382062687630309 -163.54198912161564 68.058670337964259 -84.382062687630366 -163.54198912161564 68.058670337964259 -190.87285281858280 -1.5549854215695868e-05 -2.3440180314014126e-05 -2.6224445591702901e-05 -188.60088006055858 3.4397481529779839e-09 5.7184990076564191e-10 2.4065341104773097e-05 0.00058620369941073970 1.4799635042275149e-11 3.5022102401876612e-11 7.8122464195082338e-11 0.00072325251583837914 -81.827457560199960 -161.86023086400007 83.003618824599982 2109.0980859678357 0.0000000000000000 0.0000000000000000 0.0000000000000000 0.0000000000000000 3.3654984472676550 3.7597307033791059 1.3948699905143374 1.1804713398072293 1059.3647457486522 1027.5664034519139 1.1810476020981548 
-28.766625925422716 -125.73257079608209 121.70835952304613 -28.766625925422694 -125.73257079608217 121.70835952304608 -11.453710241981023 -2.6890591173329734e-06 -4.6726014060462024e-06 2.7797341240893156e-05 -2.0212431194252611e-19 1.4238252799003701e-09 3.0905922265844765e-10 1.4451834058348821e-05 0.00032490987866571675 1.6314116733224250e-11 1.2020285487789513e-11 -4.8569291819971117e-11 9.4404982878271196e-21 -27.709188355560290 -124.82363704902639 130.68317166702266 1064.0748165315658 0.0000000000000000 0.0000000000000000 0.0000000000000000 0.0000000000000000 3.3640697096643772 3.7565482412241984 1.3931045154007158 1.1807745724988989 728.40435535696190 728.67984721594519 1.1802979528709128 