# For a description of the Tecplot format see the Tecplot User's guide.
#
Variables=x,y,z,s_u,s_v,s_w,s_p,mono_f_vel_u,mono_f_vel_v,mono_f_vel_w,const,u_nu,v_nu,w_nu,p_nu,x_nu,y_nu,z_nu,const,u_ref,v_ref,w_ref,vol_ref,x_ref,y_ref,z_ref,const,I1,I2,I3,J,p1,p2,p3
Zone f=fepoint, n=3174, e=16683, et=brick, c=black
-25.3274 -154.821 107.608 -25.327448501359861 -154.82141204243314 107.60793117006689 -261.33461807400499 -2.4533174697690115e-05 -9.7366519649158775e-05 -0.00010269133153117943 -250.23784190056091 1.2733234558415241e-07 8.6902007478961694e-08 9.7590368332234334e-05 0.026450557713618938 9.1727029914165016e-10 2.8490768502630274e-09 1.5673660201518536e-09 0.026328823774808493 -24.903554063199991 -154.16086777200002 112.24023381839994 89.724962256112903 0.0000000000000000 0.0000000000000000 0.0000000000000000 0.0000000000000000 3.1533682346590499 3.3106660166114277 1.1572670216347061 1.0776426749396806 754.22851533072935 756.32677840155202 1.0757035122097611 
-38.055974452796498 -156.08798295554794 110.33043446245736 -38.055974452796491 -156.08798295554791 110.33043446245742 -217.28853124869491 7.8807384244133086e-05 -7.9230096496755951e-05 -5.1623463949597711e-05 0.0000000000000000 1.1996130348131908e-06 2.3090254190871491e-05 0.00010133625286866803 0.025975854231308815 -1.6165468787800946e-09 1.4484409404688165e-09 9.7399447021685814e-10 0.0000000000000000 -37.438273663334591 -155.10473791080037 114.93291110338620 89.036758072416930 0.0000000000000000 0.0000000000000000 0.0000000000000000 0.0000000000000000 3.2068428809162226 3.4253695370313251 1.2186865071401733 1.0983652841815770 783.65360192254559 784.03649581069942 1.1040159698136376 
-32.045973303432653 -148.48269569730536 115.62079071853336 -32.045973303432667 -148.48269569730530 115.62079071853340 -187.24150911587645 2.4424791553328189e-05 -5.6247603034951291e-05 -1.9370922032166609e-05 0.0000000000000000 1.5120088039943799e-07 7.9413304709952115e-08 8.9337404574507673e-05 0.025447569269917977 -6.7872233822291029e-10 1.7407282558787884e-09 -1.9312172494510825e-10 0.0000000000000000 -31.542619574254449 -147.87907313389167 119.86135157363466 98.260374494724786 0.0000000000000000 0.0000000000000000 0.0000000000000000 0.0000000000000000 3.1739458391867985 3.3552639700370106 1.1813700213842568 1.0890646704446099 686.13014844329916 685.64119202736265 1.0868223233391339 
-29.116361291626717 -143.52649746215351 107.48627040067694 -29.116361291626728 -143.52649746215357 107.48627040067689 -186.06064194049213 2.7200419788013135e-05 -7.3766202095752078e-05 -4.6290226366631805e-05 0.0000000000000000 1.4079300755809321e-07 7.3557954727299091e-08 9.7715674645115755e-05 0.025481740032645018 -3.1847894462152146e-11 2.6571466646266686e-09 1.4889097637854198e-09 0.0000000000000000 -28.647655777685479 -142.96738158566356 112.12452093910819 112.69127588814607 0.0000000000000000 0.0000000000000000 0.0000000000000000 0.0000000000000000 3.1823781714468042 3.3735624088636151 1.1912985700011762 1.0895009673022062 694.14084052148098 691.98653930195212 1.0914681593139337 
-24.678074556750431 -201.51198556487500 67.114557727760143 -24.678074556750431 -201.51198556487500 67.114557727760143 -750.84121093506712 4.5264474810463625e-06 3.8828298597337830e-07 2.9301148271797245e-06 -754.67846780359912 1.2502535176595053e-07 1.4206320020360153e-07 0.00013929712003601932 0.036162491750262239 1.8878121146097284e-11 -7.8711690349488654e-11 -9.5852601594901013e-11 0.036172144672740873 -24.261860196399997 -200.43215969199997 73.726546483199982 142.71380061529433 0.0000000000000000 0.0000000000000000 0.0000000000000000 0.0000000000000000 3.1479140796562355 3.3007448169875397 1.1528772309143971 1.0736269689328348 1613.5461580666272 1614.4770795940435 1.0737215071834958 
-24.572361870249914 -188.60298064698122 68.779280329755963 -24.572361870249917 -188.60298064698122 68.779280329755949 -738.54542570895569 1.6542503986266161e-05 -2.2320907818323701e-05 -6.9905227799997479e-06 -742.99688928133730 1.2464979096127318e-07 1.2681222305577222e-07 0.00013758251425421975 0.035929197359224820 -4.0409524917953766e-10 6.0979238836196754e-10 3.9012842212050445e-10 0.036073290319655248 -24.157397762799999 -187.63907770800003 75.309882232799993 165.73632395326644 0.0000000000000000 0.0000000000000000 0.0000000000000000 0.0000000000000000 3.1479328580802668 3.3007489499891767 1.1528616769918096 1.0736269689328362 1593.0154923928621 1593.1903203766553 1.0737126976940894 
-35.428905589122337 -196.44565917024690 75.389232057438733 -35.428905589122309 -196.44565917024673 75.389232057438690 -731.49934864044087 7.4822190192226568e-06 -1.7425197355508004e-05 -3.4591588848490565e-05 0.0000000000000000 1.6321923310136380e-07 1.3607773430290848e-07 0.00013077449625065185 0.035988761488385201 -1.3978781266754959e-10 7.9571891934865789e-10 9.5726821894906137e-11 0.0000000000000000 -34.885542273181727 -195.41132893576267 81.596679120775832 139.46796289390394 0.0000000000000000 0.0000000000000000 0.0000000000000000 0.0000000000000000 3.1465932612235998 3.2980493220946840 1.1515026106003177 1.0722869007072726 1578.2461666563524 1577.5261257710024 1.0730797507521883 
-19.173715845848044 -195.55604146436269 75.196064121355960 -19.173715845848047 -195.55604146436264 75.196064121355917 -744.90656832141394 8.3972557899362150e-06 -1.1109767707153792e-05 -1.6208480002049926e-05 0.0000000000000000 1.0547032130991951e-07 1.3502672413512329e-07 0.00013097345242840677 0.035953148017999398 -2.2144520743776926e-10 5.3440625248191734e-10 9.9515841128834394e-11 0.0000000000000000 -18.822600960987238 -194.52970000168264 81.412954998504986 111.95285379220412 0.0000000000000000 0.0000000000000000 0.0000000000000000 0.0000000000000000 3.1481861241757927 3.3012809586996821 1.1531411477566700 1.0736269689328346 1610.4218440215261 1608.7717118568569 1.0738453067203757 
-23.061072317781882 -103.40674967665979 35.059551167686024 -23.061072317781882 -103.40674967665976 35.059551167686031 -720.80396360475083 -2.2650260694906023e-05 2.6466091703903887e-05 -3.6117537864723632e-05 -728.27698745399800 1.1928071816380559e-07 2.6159676091985770e-08 0.00017231265037587209 0.037280213083761643 2.0637507613559464e-10 -1.2906852843684449e-09 1.7901020155603663e-09 0.037747440533088289 -22.663982073999996 -103.20790935200000 43.238681550399988 69.202643319072678 0.0000000000000000 0.0000000000000000 0.0000000000000000 0.0000000000000000 3.1476226716277029 3.3001375642675121 1.1525610565601372 1.0736269689328342 1562.7606867052530 1562.7517024476258 1.0735748938014169 
-30.638366800506383 -111.04049837319016 39.002387477045730 -30.638366800506386 -111.04049837319015 39.002387477045723 -701.44638790649515 1.8617695834814258e-06 4.1516541871435540e-05 -4.9048012822403325e-05 -695.34367557711073 1.4620015423294497e-07 3.5178343682495943e-08 0.00016825166753342558 0.036574001511420942 9.0311526470933481e-10 -1.7405520663654994e-09 1.9645400962965651e-09 0.036758308778519773 -30.151660686400003 -110.77310694400001 46.988755992800002 74.715282964229786 0.0000000000000000 0.0000000000000000 0.0000000000000000 0.0000000000000000 3.1483395115626629 3.3015900704511245 1.1532967780358141 1.0736269689328337 1525.8340115962167 1525.8092736134297 1.0739191670699140 
-19.085218550594252 -103.76914293810511 42.177267956129427 -19.085218550594252 -103.76914293810508 42.177267956129420 -687.14616259051274 -2.7650509641997201e-05 2.1490607894518234e-05 -5.2102739257433416e-05 -688.52245458076311 1.0515591938875524e-07 2.6587816837064793e-08 0.00016498165220113492 0.036061884571550969 5.3522094038232462e-10 -1.4867847777294232e-09 1.8378475005080035e-09 0.036168008261987752 -18.735150314000002 -103.56704831999998 50.008419303199993 79.719497061372692 0.0000000000000000 0.0000000000000000 0.0000000000000000 0.0000000000000000 3.1476822711656642 3.3002557788925793 1.1526196257711683 1.0736269689328348 1502.5510046348027 1502.5454059756596 1.0736012527178695 
-25.922815007791716 -98.643656910268305 43.201142980486139 -25.922815007791730 -98.643656910268362 43.201142980486118 -697.08779288340099 1.1893146467261660e-06 9.6882211876827117e-06 -8.0702702269379125e-05 0.0000000000000000 1.2944747149190586e-07 2.0532452849053584e-08 0.00016392709690649099 0.036598703772357882 3.3401458801953413e-10 -9.0973647023465563e-10 1.9131251633057243e-09 0.0000000000000000 -25.491879232152165 -98.487589184379729 50.982237960580505 72.292163684038698 0.0000000000000000 0.0000000000000000 0.0000000000000000 0.0000000000000000 3.1475605289831901 3.3000322039065244 1.1525182933704972 1.0736269689328339 1517.9518849780261 1517.9372059360094 1.0735527570231396 
-25.815117119360199 -104.35537195076394 103.91030880280684 -25.815117119360217 -104.35537195076401 103.91030880280685 -179.07681987036705 2.3684880442761170e-05 7.9098278149152860e-05 -9.5616212558015437e-06 0.0000000000000000 1.9076994966013416e-06 -6.7603248665398155e-06 0.00010606399026596641 0.025246076099661941 -1.4156584595675934e-09 -3.3878396638843309e-09 2.7558785247601062e-09 0.0000000000000000 -25.283559732051039 -104.23282252886388 108.75695162467670 96.378087069502698 0.0000000000000000 0.0000000000000000 0.0000000000000000 0.0000000000000000 3.1754115082636942 3.3574823791175561 1.1820669214414397 1.0916340320789353 657.09317744108910 657.02626736600496 1.0871412892853813 
-26.470380134066399 -118.25715405687963 105.88367886619578 -26.470380134066403 -118.25715405687967 105.88367886619574 -128.32156810251877 3.3805413155803032e-05 4.0564779441910488e-06 -2.8200821093182623e-05 0.0000000000000000 3.3906660975549016e-06 -3.7713652355553692e-06 0.00010518679965907034 0.024093555417085178 -2.2199850106400771e-09 3.8893759289679102e-10 2.4140410130747269e-09 0.0000000000000000 -25.913646985361510 -118.01095136745833 110.66456878241424 88.846747377876298 0.0000000000000000 0.0000000000000000 0.0000000000000000 0.0000000000000000 3.2293868932243686 3.4718312831122131 1.2426147649982802 1.1072780365786137 671.37415302954571 672.24942775618149 1.1148158877830621 
-37.069105629581180 -112.73187507169165 107.36530365839306 -37.069105629581166 -112.73187507169168 107.36530365839313 -132.32602037582768 -2.6303583724195044e-05 4.1771385355644296e-05 2.5834265363028149e-05 0.0000000000000000 1.0548313364216086e-05 -1.3306846340135054e-05 0.00010437600999408510 0.023973116817033818 1.3234285567592204e-09 -2.4379476598343705e-09 -1.3896159796059528e-09 0.0000000000000000 -36.236867317722961 -112.72601430119678 112.03758904139967 95.996160021407249 0.0000000000000000 0.0000000000000000 0.0000000000000000 0.0000000000000000 3.2348592381197681 3.4836565544255835 1.2490110083547448 1.1130772787897603 690.20498999530889 689.98646957162180 1.1176041046798977 
-34.085378797213629 -105.03449246267139 100.50387081021262 -34.085378797213615 -105.03449246267142 100.50387081021259 -175.40542212069371 9.0093911216362286e-07 8.9749693460737710e-05 -1.3610304969516127e-05 0.0000000000000000 6.6238217466771053e-06 -1.7347270112311189e-05 0.00012123333363259040 0.025501344935856544 -9.7645539183047676e-10 -3.7031364249470702e-09 2.2668079457875758e-09 0.0000000000000000 -33.380789828628046 -105.09637623893835 105.63342596379557 85.433794965156210 0.0000000000000000 0.0000000000000000 0.0000000000000000 0.0000000000000000 3.2126133632801794 3.4352344806810859 1.2226906094568220 1.1011778416830216 698.54548426543590 698.52927981363132 1.1057386496530974 
-113.68835194097773 -161.38294648920888 120.67059053847262 -113.68835194097777 -161.38294648920890 120.67059053847264 -443.36528302038573 4.2336148844194149e-06 -1.3287716672866761e-05 -3.2242956908743515e-05 -441.76045427348066 4.4124724782323993e-07 9.4653917925846542e-08 8.4136288203140452e-05 0.028036034089545265 -1.2838499822966587e-10 4.1370483520180395e-10 4.7885976101173991e-10 0.028038418162539828 -112.21942232800005 -160.66347960400000 124.66427103520003 147.55923210393107 0.0000000000000000 0.0000000000000000 0.0000000000000000 0.0000000000000000 3.1586893666218212 3.3239285564011856 1.1653158959758356 1.0736269689328337 1099.8291957224897 1099.8291901567206 1.0795913327399809 
-100.84970575685171 -158.79087906516943 112.17586065223378 -100.84970575685169 -158.79087906516946 112.17586065223381 -458.30241361367615 -2.9216965148009896e-05 -2.2631189761558779e-05 -6.0960769876247326e-05 0.0000000000000000 3.9563610540471750e-07 9.1591610629215836e-08 9.2885561484123969e-05 0.028224577997877722 1.0058036017612417e-09 4.9297120395184449e-10 9.0499155999243118e-11 0.0000000000000000 -99.532617471171264 -158.09468895943013 116.58484116745363 117.70414803503969 0.0000000000000000 0.0000000000000000 0.0000000000000000 0.0000000000000000 3.1218396288362409 3.2424727329971428 1.1205302919094722 1.0612649215217120 1049.4504204754955 1049.4504201303682 1.0584708976845361 
-105.71721840200360 -149.46744543396773 116.70416503202429 -105.71721840200365 -149.46744543396778 116.70416503202431 -429.17125688585281 -2.4753720829996395e-05 -2.5699722841361361e-05 -2.7762561877977349e-05 0.0000000000000000 4.1292864236264215e-07 8.0576702754520100e-08 8.8221567100532639e-05 0.027820176518202636 6.6759495190897144e-10 7.8138192248162716e-10 -5.4027213681524382e-11 0.0000000000000000 -104.34256255272837 -148.85497981259945 120.89176065121424 119.29379793442074 0.0000000000000000 0.0000000000000000 0.0000000000000000 0.0000000000000000 3.1227989630521238 3.2465588346734084 1.1237443504239559 1.0623383993458351 1002.5565326716979 1002.5565339613057 1.0599670658996809 
-101.85944000189117 -163.01719718303033 120.56917691240905 -101.85944000189114 -163.01719718303039 120.56917691240912 -437.96332883292217 -1.5837089003040985e-05 -3.4614063474150365e-05 -2.9429913687454772e-05 0.0000000000000000 3.9922332725761400e-07 9.6584667708121699e-08 8.4240740674701442e-05 0.027938792950461470 5.0606847815454397e-10 9.5725716915396760e-10 1.8779036515614515e-10 0.0000000000000000 -100.53040969477119 -162.28305471776312 124.56781543385799 141.51484144144280 0.0000000000000000 0.0000000000000000 0.0000000000000000 0.0000000000000000 3.1256998306074748 3.2536879002809789 1.1279833837734190 1.0632060115790762 1023.5196195257776 1023.5196226850173 1.0619978178632616 
-79.464697601703278 -149.40938220122467 83.644368347665889 -79.464697601703293 -149.40938220122464 83.644368347665903 -475.45054392721318 -7.2121847834817051e-05 -5.1849665011493875e-05 -2.4965297895016020e-05 -476.19203890347939 3.1966276234363100e-07 8.0508115174460202e-08 0.00012227199596104299 0.030584780456945515 2.0963262301644872e-09 2.5277087418016249e-09 1.2279465458558072e-09 0.030800737678137249 -78.400527573600002 -148.79743798799998 89.448228916799977 108.06316173413846 0.0000000000000000 0.0000000000000000 0.0000000000000000 0.0000000000000000 3.1578940364719683 3.3214314120331463 1.1636038816254024 1.0736269689328337 1156.5530467182364 1156.5530081968955 1.0787824272739743 
-81.234464161132180 -163.27106652936865 81.883039290592365 -81.234464161132180 -163.27106652936862 81.883039290592393 -588.97874319814230 -4.1528008736962088e-05 -8.5363378686242726e-05 -4.6349310072497632e-05 -592.95244204663209 3.2595011420499809e-07 9.6884584688261555e-08 0.00012408610298741962 0.032985442878910774 -4.1291195375509100e-10 3.2858564154077768e-09 1.6693748868744514e-09 0.033627860087544932 -80.149363288800018 -162.53464431600008 87.773009718400019 109.57810873427631 0.0000000000000000 0.0000000000000000 0.0000000000000000 0.0000000000000000 3.1592033784042663 3.3237414879142473 1.1645895500070176 1.0736269689328375 1356.6201263821627 1356.6203960800001 1.0792652830085390 
-85.430202038738656 -160.89955944360563 89.453329770114451 -85.430202038738614 -160.89955944360557 89.453329770114436 -536.92681129891844 -2.9371702673555552e-05 -5.8483336671608136e-05 -8.5993713020895298e-05 0.0000000000000000 3.4085608222045316e-07 9.4082858947963643e-08 0.00011628896982252002 0.031867079425037310 1.3045245977327612e-09 1.2721888276654092e-09 1.2963701300929378e-09 0.0000000000000000 -84.295478612813938 -160.18443337667750 94.973195224810283 106.11323630727971 0.0000000000000000 0.0000000000000000 0.0000000000000000 0.0000000000000000 3.1202605736542055 3.2441435320695282 1.1239057396259644 1.0624947690672901 1180.8123913649108 1180.8123770122691 1.0600008742361267 
-87.634807750181821 -152.02558686116853 86.994404702671147 -87.634807750181821 -152.02558686116848 86.994404702671105 -515.65802778320551 -3.3809999716395476e-05 -7.5979940979891553e-05 -8.2502906124040754e-05 0.0000000000000000 3.4868826578882123e-07 8.3598957201225246e-08 0.00011882157623510636 0.031191789144291618 8.1736093442533693e-10 2.2381568134306159e-09 6.7228189977471567e-10 0.0000000000000000 -86.474010682800568 -151.39014911596544 92.634484883397832 94.367740677547317 0.0000000000000000 0.0000000000000000 0.0000000000000000 0.0000000000000000 3.1343381452506893 3.2731573884235856 1.1388662145436610 1.0650581783501356 1167.4648502588898 1167.4648476820209 1.0671765820431911 
-26.455897010803536 -132.89453591637783 135.36956420163173 -26.455897010803536 -132.89453591637786 135.36956420163170 -254.98903248415837 2.4262211023207127e-05 -2.0771616529439319e-05 9.4835719819214999e-05 -270.33272071098139 1.3134132323400216e-07 6.0997134343487844e-08 6.8996861848802382e-05 0.026661971066479519 -6.2036191334265396e-11 8.6018623627975143e-11 -1.9433189567018156e-09 0.026484284695410382 -26.018656529999991 -132.43089511199997 138.64462455200004 49.421240865332216 0.0000000000000000 0.0000000000000000 0.0000000000000000 0.0000000000000000 3.1461483895977418 3.2968929037532670 1.1507925943218689 1.0781687884275688 747.01321147458714 747.03921984210149 1.0727967258538347 
-33.010204505279027 -134.43428104394064 134.27434551240506 -33.010204505279027 -134.43428104394067 134.27434551240506 -241.80912662268159 -2.0888474280627375e-06 1.6789571298794874e-05 5.2005267388707334e-05 -195.79463642159229 1.5462645122643615e-07 6.2816224777328968e-08 7.0124898618573184e-05 0.026732271792088848 5.1700996422845194e-10 -7.5696432938343851e-12 -6.9364895611761900e-10 0.029053300204048022 -32.495446914399992 -133.95681332000001 137.60295016000006 48.530522504776933 0.0000000000000000 0.0000000000000000 0.0000000000000000 0.0000000000000000 3.1819905295616087 3.3723137452544170 1.1904201658212621 1.0907105767482435 795.05903540682311 795.05391674388056 1.0909838027184195 
-28.884163187620544 -136.93873484056274 137.12056933245395 -28.884163187620530 -136.93873484056277 137.12056933245393 -256.13634227249975 2.7803236716997598e-05 2.0773850990976535e-05 3.0065743864657765e-05 -269.75237501955337 1.3996808920224701e-07 6.5775043966986857e-08 6.7193388087360972e-05 0.026838515923445449 1.4700861903214491e-10 -1.0674661361381954e-09 -3.7460302510387068e-10 0.026660820065538063 -28.418203856399998 -136.43877710800004 140.31002455199999 44.353383947079159 0.0000000000000000 0.0000000000000000 0.0000000000000000 0.0000000000000000 3.1533898698981422 3.3116490362892317 1.1582968807127816 1.0816930631349502 765.03581812149378 765.03334108399929 1.0762213154558127 
-27.214578822657000 -129.93883572531985 140.84075585818431 -27.214578822657007 -129.93883572531982 140.84075585818434 -276.19742220243501 1.2938367968588153e-05 1.5825175523980735e-05 1.7591096541598790e-05 0.0000000000000000 1.3403665063971282e-07 5.7505216255471225e-08 6.3361726704513912e-05 0.027041549862975581 5.0469031134875066e-11 -2.5641268775102820e-10 2.6471065865538866e-10 0.0000000000000000 -26.768365491316434 -129.50173712462359 143.84833436668455 49.139845408488213 0.0000000000000000 0.0000000000000000 0.0000000000000000 0.0000000000000000 3.1570241936511092 3.3203914725937995 1.1634349490062801 1.0820662900958857 814.27246689730066 814.27234792317893 1.0786032780732240 
-40.674160320935492 -65.333008923027663 151.46522360538094 -40.674160320935485 -65.333008923027677 151.46522360538091 -401.01932225845400 -1.1174519233061078e-05 -8.7605155332999756e-07 2.0646303917937178e-05 -404.53320491819585 1.8185376396417932e-07 -1.8821419867087741e-08 5.2418898272676977e-05 0.027605273549053466 8.2219948869657846e-11 -1.6209514421747390e-10 -1.2051101575134682e-10 0.027687285970501237 -40.068761925200000 -65.476070995999990 153.95338104800004 156.95717166164070 0.0000000000000000 0.0000000000000000 0.0000000000000000 0.0000000000000000 3.1443864405637307 3.2936682068519612 1.1493347695438223 1.0715548063065685 997.96103422559872 997.96247694341628 1.0720753860390864 
-53.180062297650046 -59.459974313711413 146.53460327760129 -53.180062297650046 -59.459974313711420 146.53460327760129 -407.31085668117777 -1.2768749965499966e-05 -2.7399413281343164e-06 1.5206425501820842e-05 -409.10836378921761 2.2628279303105181e-07 -2.5759941624237118e-08 5.7497263936667771e-05 0.027650857755420082 2.3112906976618543e-10 -1.5434929795281525e-10 6.7622015029210248e-12 0.027730340521219421 -52.426757905599978 -59.655776269200025 149.26381449600007 118.05125250056595 0.0000000000000000 0.0000000000000000 0.0000000000000000 0.0000000000000000 3.1508137326063919 3.3070696588601938 1.1563132989227367 1.0718533955232592 1021.8023834766917 1021.8024660400812 1.0753329907506770 
-35.719720010119325 -65.891725371351669 142.05118966023363 -35.719720010119325 -65.891725371351654 142.05118966023363 -388.80039143253612 -2.9886507888713031e-06 1.6912188413911825e-06 5.6146927111064322e-07 -388.57549850960373 1.6425239610096123e-07 -1.8161338766198298e-08 6.2115022419817478e-05 0.027569766463949555 9.1014280830595802e-12 -2.4774339683279959e-11 1.6600471959575438e-10 0.027593566199820788 -35.172917262399999 -66.029770167599992 144.99959110400002 155.12084301790807 0.0000000000000000 0.0000000000000000 0.0000000000000000 0.0000000000000000 3.1492041647783462 3.3032273045389426 1.1540688624191735 1.0732602708209227 987.26098161811194 987.26275464281036 1.0742776923984214 
-51.142029030254406 -66.457161007247066 139.11134256536545 -51.142029030254427 -66.457161007247109 139.11134256536539 -396.66867902767075 -1.2455322189348616e-05 7.6573971984163522e-06 8.9946778306799268e-06 0.0000000000000000 2.1904238275971541e-07 -1.7493315795924502e-08 6.5142961622299822e-05 0.027587032453069812 2.3118094976961039e-10 -3.6567705877388657e-10 1.5475621106482292e-10 0.0000000000000000 -50.412828244765279 -66.590128188430739 142.20347059834828 136.07757377940416 0.0000000000000000 0.0000000000000000 0.0000000000000000 0.0000000000000000 3.1338858622529053 3.2706085884782876 1.1367196023859487 1.0678610134734938 968.69830643171042 968.69306912971535 1.0661517018149416 
-95.817289261474912 -159.41857799754268 71.215362716002105 -95.817289261474897 -159.41857799754274 71.215362716002105 -695.00378133462607 -1.7482641519438347e-05 -2.5302375324831848e-05 -3.6176058352034326e-05 -695.36675307104281 3.7775771241643774e-07 9.2333190093718556e-08 0.00013507343500585026 0.033974668821714862 -2.5425734242533036e-10 7.6286560099677602e-10 9.4549537726529353e-10 0.034394395498177362 -94.559718839999974 -158.71675115199997 77.626866652000004 109.98746742214213 0.0000000000000000 0.0000000000000000 0.0000000000000000 0.0000000000000000 3.1470912657049461 3.2990545200121582 1.1520096352011495 1.0736269689328337 1515.8734961940497 1515.8735003674735 1.0733135403587448 
-90.881332856684480 -159.16596356255192 76.274170627398988 -90.881332856684452 -159.16596356255192 76.274170627398988 -645.15949544791147 -6.2938590549947376e-05 -5.8109291162686608e-05 -7.3731352911376422e-05 -628.92365159197391 3.6022200708418772e-07 9.2034730392320796e-08 0.00012986304061435308 0.033354466951123346 1.6328288991833122e-10 1.6338492845732709e-09 2.2288334671959822e-09 0.033711584647757961 -89.682139475999989 -158.46640519600001 82.438353807199988 112.88451412247700 0.0000000000000000 0.0000000000000000 0.0000000000000000 0.0000000000000000 3.1487935281555859 3.3022919760901344 1.1535406430108068 1.0736269689328353 1425.6824034840345 1425.6824016409114 1.0740156601025812 
-104.06498161308235 -155.61167952132831 80.659182278115793 -104.06498161308232 -155.61167952132834 80.659182278115807 -637.07564017664322 -1.4531430015514271e-05 -1.3810748698548967e-05 -8.3416464735290008e-05 0.0000000000000000 4.0705883971869916e-07 8.7835648865386418e-08 0.00012534663271246416 0.032810568678252668 5.0587011757899346e-10 5.4635811288547948e-10 7.7241093542876096e-10 0.0000000000000000 -102.70986659571734 -154.94403864466588 86.608986019839278 111.02505284862640 0.0000000000000000 0.0000000000000000 0.0000000000000000 0.0000000000000000 3.1502657905827038 3.3056552085260908 1.1554369845604060 1.0717386973367973 1426.5019130332878 1426.5019112905311 1.0749410429657038 
-101.73461873586039 -167.95237365555067 77.569205084848591 -101.73461873586034 -167.95237365555076 77.569205084848576 -675.99949249006647 -8.1015541758505786e-06 -1.7575611108333456e-05 -8.0007514141424145e-05 0.0000000000000000 3.9877987531578007e-07 1.0241519221576566e-07 0.00012852920063011197 0.033787346096645757 1.6939057084527131e-11 8.6120774539636856e-10 3.0199715905446629e-10 0.0000000000000000 -100.40706467681501 -167.17391327890167 83.670075146830683 105.53983917324770 0.0000000000000000 0.0000000000000000 0.0000000000000000 0.0000000000000000 3.1474572718432841 3.2998187441385780 1.1524078786992995 1.0720989678732602 1479.4553551260810 1479.4553563382503 1.0735061944744759 
-116.12177165777372 -99.973864424552289 91.134593967640427 -116.12177165777372 -99.973864424552275 91.134593967640427 -528.28085485414238 -1.3876944898796428e-05 -1.9592849326970588e-05 -5.9584736112684951e-05 -535.25736500184951 4.4989232379723892e-07 2.2103993191358029e-08 0.00011455732676957099 0.030954592987345434 3.0909437642433012e-10 9.4791758076691590e-10 1.3297661769132376e-09 0.031031154927933343 -114.62406224400000 -99.805851428000011 96.572263865600007 85.211636250682801 0.0000000000000000 0.0000000000000000 0.0000000000000000 0.0000000000000000 3.1514800892606565 3.3073016064729024 1.1558155617738546 1.0666893799075630 1232.0054631869004 1232.0053884268821 1.0750584451482224 
-112.54294512218077 -91.186746604663966 94.971165277620784 -112.54294512218077 -91.186746604663981 94.971165277620770 -497.71564333015976 -6.0892062983104857e-06 -9.1928496049997878e-07 -6.4753411987829019e-05 -493.54587274152976 4.3717802086784557e-07 1.1722708248562697e-08 0.00011060579314836617 0.030278410340649271 -3.0330748111419250e-11 -1.9898187260238502e-10 1.7138190727788940e-09 0.029950945207546601 -111.08756211600000 -91.097641973600034 100.22126851279998 99.535403830130534 0.0000000000000000 0.0000000000000000 0.0000000000000000 0.0000000000000000 3.1615750588748877 3.3292778314853781 1.1677796263734257 1.0710232460203781 1198.4439925513836 1198.4446564700722 1.0807030323619249 
-114.38147516089617 -97.804335503118594 103.55643448630889 -114.38147516089613 -97.804335503118622 103.55643448630893 -455.79016350537654 -6.0581507201086953e-06 -4.2369887597024900e-06 -5.7639399307388622e-05 -455.15752196950046 4.4370967119955468e-07 1.9540863038791659e-08 0.00010176326753885689 0.029200143128200250 1.6325344475378540e-11 1.1628355351349765e-10 1.0609311320468481e-09 0.029143376422274710 -112.90434805199999 -97.655804887999992 108.38681131359999 128.09762094244454 0.0000000000000000 0.0000000000000000 0.0000000000000000 0.0000000000000000 3.1503338344408456 3.3064409013086529 1.1561676982696132 1.0710396455573210 1108.5131971896119 1108.5123832762931 1.0752550342722498 
-108.56297865824119 -104.04578012880599 95.316967759885983 -108.56297865824124 -104.04578012880606 95.316967759886026 -490.70618145667953 -6.5408699669905666e-05 -6.3338829394672840e-06 -6.8822160239007650e-05 0.0000000000000000 4.2303861944037452e-07 2.6914633410868302e-08 0.00011024962873129597 0.030080752807980161 2.6920863858547583e-09 1.4124193887547919e-10 6.5762520975909264e-10 0.0000000000000000 -107.15466629968294 -103.84120130723400 100.55016500991876 102.24201981555134 0.0000000000000000 0.0000000000000000 0.0000000000000000 0.0000000000000000 3.1256348399676743 3.2515461606848004 1.1258594535263962 1.0607594207913296 1110.2827706174683 1110.2828811947775 1.0609932242033537 
-27.403467331133406 -115.58835221310869 98.097491808099150 -27.403467331133392 -115.58835221310876 98.097491808099193 -156.75799085635310 5.0717039393626479e-05 2.1910508466683683e-05 -7.0559592669872177e-05 0.0000000000000000 5.5229870577738201e-07 -5.0711332049159317e-06 0.00012222359082105373 0.025381558717994523 -1.6836270481576372e-09 -3.6097708339723496e-10 2.8040506059885575e-09 0.0000000000000000 -26.889884864405381 -115.37486796036181 103.37575244326078 96.382960025775517 0.0000000000000000 0.0000000000000000 0.0000000000000000 0.0000000000000000 3.2035018615838586 3.4172849784298021 1.2138926831564631 1.1014111961974116 668.64243793611001 668.60711206366648 1.1017500752592324 
-111.00553437790586 -103.82436386633894 149.61903383564720 -111.00553437790586 -103.82436386633891 149.61903383564726 -413.40159793509366 1.3267225944576014e-06 4.4827357311204239e-06 4.2374081276731194e-07 -415.24301570420471 4.3171614680370679e-07 2.6653045437363687e-08 5.4320408869656944e-05 0.027312557088932734 -6.3720715719666849e-11 -2.3403310087421738e-10 2.6692803839604060e-11 0.027323770981852583 -109.56833416800004 -103.62177336400003 152.19744990400002 70.302883591683823 0.0000000000000000 0.0000000000000000 0.0000000000000000 0.0000000000000000 3.1421967823500698 3.2883759112315478 1.1462075251424548 1.0707547354985636 1015.1869772155168 1015.1805462619249 1.0706204900364820 