# For a description of the Tecplot format see the Tecplot User's guide.
#
Variables=x,y,z,s_u,s_v,s_w,s_p,mono_f_vel_u,mono_f_vel_v,mono_f_vel_w,const,u_nu,v_nu,w_nu,p_nu,x_nu,y_nu,z_nu,const,u_ref,v_ref,w_ref,vol_ref,x_ref,y_ref,z_ref,const,I1,I2,I3,J,p1,p2,p3
Zone f=fepoint, n=3174, e=16683, et=brick, c=black
-25.8220 -155.587 101.726 -25.821961518840279 -155.58721942636609 101.72593035331595 -76.924058905379454 -2.8517389814682728e-05 -6.2290211302551426e-05 -8.6670416312089913e-05 -38.101643457918605 6.6099270501496211e-10 2.5918245327716249e-10 9.0763607794031015e-06 0.00088150981286800440 4.1537396589299407e-10 3.1025103485476995e-09 -3.2502570777323097e-09 0.0013404184227304924 -24.903554063199991 -154.16086777200002 112.24023381839994 89.724962256112903 0.0000000000000000 0.0000000000000000 0.0000000000000000 0.0000000000000000 3.3435754660914139 3.7113397122770104 1.3681626301052239 1.1705613992194350 1309.8241722127959 1309.8278161486674 1.1696148062409490 
-38.691977126837003 -156.78356763301977 104.64542563997406 -38.691977126836981 -156.78356763301971 104.64542563997399 -45.586971071673453 3.9461833599721674e-05 8.0965023896074509e-06 -3.1978474956451899e-05 0.0000000000000000 -1.1567093732231304e-06 -4.4303744825797430e-07 8.2411257573718076e-06 0.00042301026128239023 -1.3579035659647497e-09 6.3554748473769152e-10 -4.7208693507677711e-09 0.0000000000000000 -37.438273663334591 -155.10473791080037 114.93291110338620 89.036758072416930 0.0000000000000000 0.0000000000000000 0.0000000000000000 0.0000000000000000 3.3777395568309596 3.7912395253171942 1.4144372294231382 1.1842651225505663 1383.6888932290719 1383.6670135066117 1.1893435939317893 
-32.633183111035898 -149.18251043624440 110.23621542050890 -32.633183111035912 -149.18251043624431 110.23621542050888 -29.997176294129069 2.6756178965311472e-06 1.2247246140140843e-05 -4.4002365794409733e-05 0.0000000000000000 7.8489503785306169e-10 2.3683899286197629e-10 8.3087965379036177e-06 0.00011912146112118828 3.5284569070975339e-10 1.2843587477284410e-09 1.7818047651252118e-09 0.0000000000000000 -31.542619574254449 -147.87907313389167 119.86135157363466 98.260374494724786 0.0000000000000000 0.0000000000000000 0.0000000000000000 0.0000000000000000 3.3523563930633071 3.7326304979561979 1.3808535396941082 1.1758576541568904 1292.2386709338023 1292.2406985084720 1.1750618178682677 
-29.663150673943164 -144.17471301083955 101.59671707773808 -29.663150673943164 -144.17471301083961 101.59671707773806 -33.255590929144660 -1.3957052067358661e-05 -2.9823858720477788e-05 1.8775654637297338e-05 0.0000000000000000 7.3086980911796218e-10 2.1938673100407866e-10 9.0880148384542264e-06 5.1796199610362300e-05 -7.4495685079369780e-10 1.4894899682717508e-10 7.4176173778184687e-10 0.0000000000000000 -28.647655777685479 -142.96738158566356 112.12452093910819 112.69127588814607 0.0000000000000000 0.0000000000000000 0.0000000000000000 0.0000000000000000 3.3586334521224517 3.7467124803125773 1.3887593466489172 1.1767426021091121 1309.0541740791962 1309.0552527465263 1.1784593874830025 
-25.163628035935165 -202.76389049210627 58.718792983450854 -25.163628035935169 -202.76389049210627 58.718792983450854 -881.56200652310702 1.8818147864280673e-05 2.8347478727222728e-06 8.8224219734187752e-06 -890.13934646539667 6.4901817253826266e-10 4.2371528508056144e-10 1.2955283782645212e-05 -0.00085818143756694412 -7.8651092797335320e-11 -2.8661504126376580e-11 -2.4093047530115619e-11 -0.00085375569731295173 -24.261860196399997 -200.43215969199997 73.726546483199982 142.71380061529433 0.0000000000000000 0.0000000000000000 0.0000000000000000 0.0000000000000000 3.3393821487122599 3.7036543592020164 1.3647872169306550 1.1680438801328308 2732.4339815223157 2732.4339561372808 1.1682418687921714 
-25.056456810990191 -189.72048937593070 60.486858904872776 -25.056456810990195 -189.72048937593073 60.486858904872761 -858.98602180758405 4.0687296274059335e-05 -4.5445412501117936e-05 -1.3904560247101157e-05 -870.41107908916251 6.4706773272860119e-10 3.7822545095878013e-10 1.2795817422528440e-05 -0.00083176634252433870 -5.0487145771183779e-11 -2.1603708336185278e-11 -5.9117757468616699e-12 -0.00079938885389844029 -24.157397762799999 -187.63907770800003 75.309882232799993 165.73632395326644 0.0000000000000000 0.0000000000000000 0.0000000000000000 0.0000000000000000 3.3392914195690784 3.7033487438954724 1.3645662984457689 1.1680438801328292 2694.2940491927216 2694.2938983347153 1.1681437766949507 
-36.062790369777630 -197.64481835828107 67.507145875175524 -36.062790369777616 -197.64481835828090 67.507145875175468 -837.68022310759989 2.7191128282383181e-05 -3.2681544307790552e-05 -6.6233697845477748e-05 0.0000000000000000 8.4728302152115000e-10 4.0584691163303432e-10 1.2162639897894678e-05 -0.00091157973327371750 -1.4464974466890756e-10 -3.6831516759729481e-11 -1.3840072705105145e-11 0.0000000000000000 -34.885542273181727 -195.41132893576267 81.596679120775832 139.46796289390394 0.0000000000000000 0.0000000000000000 0.0000000000000000 0.0000000000000000 3.3369254226094247 3.6984730499577996 1.3620601194331605 1.1660249954761595 2649.3931468633223 2649.3931608053149 1.1670715582519824 
-19.583324620024349 -196.74593880469013 67.301986382242660 -19.583324620024353 -196.74593880469004 67.301986382242617 -874.83016082451911 2.1415143066582656e-05 -2.0564987051818543e-05 -3.2257429858049498e-05 0.0000000000000000 5.4750420863669547e-10 4.0272141177410958e-10 1.2181143752343360e-05 -0.00082507480920904165 -3.9881606358525673e-11 5.2801036882753701e-12 -3.8175678838187206e-12 0.0000000000000000 -18.822600960987238 -194.52970000168264 81.412954998504986 111.95285379220412 0.0000000000000000 0.0000000000000000 0.0000000000000000 0.0000000000000000 3.3396847656001780 3.7042142756157719 1.3650426620154403 1.1680438801328303 2732.8739906122983 2732.8742536706691 1.1683524001221877 
-23.524315703368757 -103.63727682777450 24.673862829997599 -23.524315703368757 -103.63727682777450 24.673862829997599 -672.85699669005521 -3.1077033846855393e-05 3.6165745104893512e-05 -5.0008880791787134e-05 -686.13535128504657 6.1919536165078171e-10 7.8026030081446152e-11 1.6025882544568049e-05 -0.0048986844756606441 -1.6686778486452185e-10 2.9272776973514062e-10 -3.4085433321365631e-10 -0.0049215089428858846 -22.663982073999996 -103.20790935200000 43.238681550399988 69.202643319072678 0.0000000000000000 0.0000000000000000 0.0000000000000000 0.0000000000000000 3.3388725763837601 3.7025420988483537 1.3641819071488219 1.1680438801328299 2370.5712116774594 2370.6329278461458 1.1679830150519173 
-31.206155588105798 -111.35050080609288 28.861464118023669 -31.206155588105791 -111.35050080609288 28.861464118023665 -645.87569229361350 6.1108810948406773e-06 5.4413592021927903e-05 -7.2205446782297754e-05 -641.61933996490802 7.5893802353732553e-10 1.0491740809470686e-10 1.5648192142947433e-05 -0.0047384407443273836 -1.6762880526283118e-10 4.9958768254155548e-10 -3.5858159898722111e-10 -0.0046166302230919313 -30.151660686400003 -110.77310694400001 46.988755992800002 74.715282964229786 0.0000000000000000 0.0000000000000000 0.0000000000000000 0.0000000000000000 3.3395252845263279 3.7038593375635434 1.3648453646082095 1.1680438801328290 2317.6135786903137 2317.5747132065544 1.1682683020158355 
-19.493606310419004 -104.00344298085098 32.233436104783316 -19.493606310419008 -104.00344298085095 32.233436104783316 -625.78307146978364 -3.9253685562430452e-05 2.7547145444578326e-05 -7.7395455057330888e-05 -629.30689537529349 5.4587240283510151e-10 7.9293682730963155e-11 1.5344065424471864e-05 -0.0045791020624174261 -2.7835856812093671e-10 3.4821320120171840e-10 -4.6009488413141611e-10 -0.0045911813464203097 -18.735150314000002 -103.56704831999998 50.008419303199993 79.719497061372692 0.0000000000000000 0.0000000000000000 0.0000000000000000 0.0000000000000000 3.3389061509179778 3.7025966335295801 1.3642021773033830 1.1680438801328303 2285.7510837263394 2285.7534832149659 1.1679907535744010 
-26.425542412465564 -98.824595300364010 33.320871654820188 -26.425542412465571 -98.824595300363995 33.320871654820174 -635.20027025549507 7.1483297208236405e-06 8.6062183345431841e-06 -0.00012221084852429007 0.0000000000000000 6.7197192255008531e-10 6.1239679993718710e-11 1.5245986844547589e-05 -0.0048306634039746547 -2.6621004579494678e-10 2.6601650035407487e-10 -4.5192659629482266e-10 0.0000000000000000 -25.491879232152165 -98.487589184379729 50.982237960580505 72.292163684038698 0.0000000000000000 0.0000000000000000 0.0000000000000000 0.0000000000000000 3.3390238588179249 3.7029260530175785 1.3644183327072881 1.1680438801328306 2300.6842993073656 2300.7446752693645 1.1680818767555943 
-26.265562390447215 -104.66181864216820 97.814000412768166 -26.265562390447222 -104.66181864216820 97.814000412768124 -24.887236710543348 7.2522842850947454e-06 4.5831837743286575e-05 1.8713601396396494e-05 0.0000000000000000 -3.5467581405360327e-07 8.9794519005398759e-07 7.8750816763196722e-06 -0.00089287356113960080 2.1100677956509330e-09 1.0422262470268712e-09 -4.4607321622174444e-09 0.0000000000000000 -25.283559732051039 -104.23282252886388 108.75695162467670 96.378087069502698 0.0000000000000000 0.0000000000000000 0.0000000000000000 0.0000000000000000 3.3541747110122637 3.7363023369379538 1.3827138519663955 1.1777078642733856 1272.4161145610335 1272.4167652828189 1.1758695261461116 
-26.914321869861791 -118.71640665164921 99.910211301776982 -26.914321869861769 -118.71640665164929 99.910211301777025 -8.4984876595044181 -6.7697125577744527e-06 -8.2573716176016684e-06 3.5396025543775735e-06 0.0000000000000000 -2.6548845125928941e-07 1.0376445807853869e-06 7.1341554214907558e-06 -0.00092769927807639528 -2.7388218433976467e-11 -1.4444832439028357e-09 -2.7302642207966389e-09 0.0000000000000000 -25.913646985361510 -118.01095136745833 110.66456878241424 88.846747377876298 0.0000000000000000 0.0000000000000000 0.0000000000000000 0.0000000000000000 3.3765472867163910 3.7846181092213418 1.4087957772627748 1.1832276852234653 1326.8991904070351 1326.8987502319676 1.1869457798686269 
-37.567028629492988 -113.25288825151318 101.43880489854335 -37.567028629492974 -113.25288825151314 101.43880489854335 -12.632863816988413 -2.3292208029425571e-05 -1.7683655817541945e-05 -7.9776199287346181e-06 0.0000000000000000 -1.3184526499109761e-06 3.3439012785525739e-06 5.6684672845040282e-06 -0.00030735410402982211 -1.1094713199106881e-09 -1.6306659870149331e-09 -7.1626296063710332e-10 0.0000000000000000 -36.236867317722961 -112.72601430119678 112.03758904139967 95.996160021407249 0.0000000000000000 0.0000000000000000 0.0000000000000000 0.0000000000000000 3.3730802794635832 3.7775668059110181 1.4052338095001178 1.1846206282353735 1331.3319784899061 1331.3345805763822 1.1854240532112568 
-34.594039462643529 -105.46106453860402 94.238792060205995 -34.594039462643529 -105.46106453860406 94.238792060205952 -18.856832396425521 -1.3484838721565640e-05 3.9727720105462579e-05 2.0287887924141555e-05 0.0000000000000000 -1.1312237560158317e-06 3.5634767046056998e-06 5.8399595030995028e-06 -0.00087095511181310920 1.1770431909539010e-09 6.3249199842834719e-10 -1.0884823790049493e-09 0.0000000000000000 -33.380789828628046 -105.09637623893835 105.63342596379557 85.433794965156210 0.0000000000000000 0.0000000000000000 0.0000000000000000 0.0000000000000000 3.3761501066849844 3.7832911669189717 1.4078390022951475 1.1833957016892975 1312.6211708603776 1312.6226936248643 1.1865233786710434 
-115.40199748568767 -162.21706628685234 115.59949874527001 -115.40199748568763 -162.21706628685232 115.59949874527001 -224.13534565894011 7.8837225197313872e-06 -2.2729587629036907e-05 -3.7144188681719122e-05 -222.26376563984016 2.2905577434784163e-09 2.8231283977220306e-10 7.8250683870351168e-06 -0.0016405464712911119 -2.7273835253204907e-11 7.9131676184780944e-11 -3.9897765445976219e-10 -0.0015806842092302325 -112.21942232800005 -160.66347960400000 124.66427103520003 147.55923210393107 0.0000000000000000 0.0000000000000000 0.0000000000000000 0.0000000000000000 3.3449607974274191 3.7169588566304750 1.3726097993814073 1.1680438801328312 1607.1693883027149 1607.1693884973213 1.1716145674872802 
-102.38621400939537 -159.59801273880905 106.57742959961375 -102.38621400939535 -159.59801273880899 106.57742959961375 -245.59435212567021 -3.3974636054333311e-05 -3.4408021895755188e-05 -7.5628669901401212e-05 0.0000000000000000 2.0537866962655471e-09 2.7318014517163642e-10 8.6387917264119096e-06 -0.0018449555079666626 -1.8094885321290128e-10 5.3337043956718166e-10 -6.3345531782882991e-10 0.0000000000000000 -99.532617471171264 -158.09468895943013 116.58484116745363 117.70414803503969 0.0000000000000000 0.0000000000000000 0.0000000000000000 0.0000000000000000 3.3263973850460888 3.6699186651938525 1.3436314173523889 1.1610686790105444 1576.7339881324663 1576.7339882665619 1.1591221284369164 
-107.32088467083511 -150.17751244422496 111.38684388048819 -107.32088467083516 -150.17751244422504 111.38684388048824 -198.94941701349205 -2.4729349910972626e-05 -5.0076024028553506e-05 -1.7727461635532591e-05 0.0000000000000000 2.1435451191820221e-09 2.4031177048300384e-10 8.2050184317949970e-06 -0.0018585586006393895 2.0787015960385177e-10 1.1218519106636217e-10 -6.2627562930770711e-10 0.0000000000000000 -104.34256255272837 -148.85497981259945 120.89176065121424 119.29379793442074 0.0000000000000000 0.0000000000000000 0.0000000000000000 0.0000000000000000 3.3259492724775681 3.6714361405675175 1.3457765558954011 1.1625403364571598 1497.7663140296236 1497.7663135895100 1.1600438541302944 
-103.40987975370734 -163.86833123403306 115.49178952332764 -103.40987975370732 -163.86833123403304 115.49178952332760 -223.20717768766505 -1.4032156544458134e-05 -5.3649336892013670e-05 -3.9121279010076450e-05 0.0000000000000000 2.0724046922993007e-09 2.8805891005845297e-10 7.8347829628455639e-06 -0.0015394957891604060 -3.0495156689505596e-11 9.0086558140475818e-11 -2.9642751522337188e-10 0.0000000000000000 -100.53040969477119 -162.28305471776312 124.56781543385799 141.51484144144280 0.0000000000000000 0.0000000000000000 0.0000000000000000 0.0000000000000000 3.3272783595077438 3.6761983438895665 1.3492969152587164 1.1622836843858269 1545.9781224189621 1545.9781231240845 1.1615737067757204 
-80.706152747927987 -150.11884471270065 76.274747837175283 -80.706152747927973 -150.11884471270062 76.274747837175269 -304.66332095762829 -9.4525555126835444e-05 -6.6309501000727075e-05 -3.4473934020857558e-05 -309.83917633666863 1.6593972862466444e-09 2.4012436483644706e-10 1.1371867600473705e-05 -0.0020371047629075233 -6.9721208234803546e-11 2.3109442954274124e-10 -7.9631334117329736e-11 -0.0019632545398347223 -78.400527573600002 -148.79743798799998 89.448228916799977 108.06316173413846 0.0000000000000000 0.0000000000000000 0.0000000000000000 0.0000000000000000 3.3504083365397626 3.7265569642785716 1.3766990049029659 1.1680438801328299 1772.4353287399438 1772.4353431891793 1.1734023088829395 
-82.500337119921213 -164.12484362491475 74.404078286291337 -82.500337119921213 -164.12484362491475 74.404078286291352 -463.54511772396921 -4.7975291685123016e-05 -0.00013378308252415635 -6.4683515993752030e-05 -467.79040722749045 1.6920405077058829e-09 2.8895508208393044e-10 1.1540588037206589e-05 -0.0019426845574398860 3.7051469933564932e-10 1.7480550013827299e-10 2.1575467104343998e-10 -0.0020805857630345802 -80.149363288800018 -162.53464431600008 87.773009718400019 109.57810873427631 0.0000000000000000 0.0000000000000000 0.0000000000000000 0.0000000000000000 3.3518873275707524 3.7293375586799744 1.3779734593074362 1.1680438801328308 2045.2778814980595 2045.2779017943496 1.1739694005645356 
-86.753964407019907 -161.72864667819402 82.444320303826757 -86.753964407019836 -161.72864667819400 82.444320303826757 -381.03445474401457 -2.5613201262960542e-05 -8.2671837578274134e-05 -0.00013058251470179230 0.0000000000000000 1.7694146148272694e-09 2.8060487267111967e-10 1.0815418175269542e-05 -0.0020077014869655059 -3.1195196194433320e-10 -2.3497435776537597e-10 -2.2815916779159758e-10 0.0000000000000000 -84.295478612813938 -160.18443337667750 94.973195224810283 106.11323630727971 0.0000000000000000 0.0000000000000000 0.0000000000000000 0.0000000000000000 3.3095204836536758 3.6429035058277601 1.3339046636807481 1.1572982638379348 1759.3678465119954 1759.3678534385690 1.1548091216293317 
-88.988987491168785 -152.76228679043618 79.832749096789428 -88.988987491168757 -152.76228679043609 79.832749096789470 -350.80643101789360 -3.6077782442245463e-05 -0.00011022675825133443 -0.00011942098719251711 0.0000000000000000 1.8100705378998330e-09 2.4933255460268811e-10 1.1050962420711128e-05 -0.0023379210310554804 -7.7973148280767727e-10 5.0104014201249027e-10 -1.4215518742321782e-11 0.0000000000000000 -86.474010682800568 -151.39014911596544 92.634484883397832 94.367740677547317 0.0000000000000000 0.0000000000000000 0.0000000000000000 0.0000000000000000 3.3235816160299545 3.6717298797530638 1.3486820067491296 1.1599699265911638 1749.0011511024065 1749.0011276280295 1.1613246898752079 
-26.965979451293610 -133.43206166200630 131.21096120907751 -26.965979451293610 -133.43206166200633 131.21096120907754 -85.364174093856747 1.8721802305036828e-05 -2.1656953597989907e-05 0.00010190505158131070 -98.895651864239213 6.8180516787919032e-10 1.8192913842085545e-10 6.4170308995414862e-06 -0.00076823684688406759 1.1531083791228164e-10 -1.6375053876106539e-11 6.5598918801445999e-10 -0.00085389696752762891 -26.018656529999991 -132.43089511199997 138.64462455200004 49.421240865332216 0.0000000000000000 0.0000000000000000 0.0000000000000000 0.0000000000000000 3.3379910563252531 3.7002682482713420 1.3627749767935762 1.1695921525167907 1342.8286205959698 1342.8282265638206 1.1673861293794674 
-33.610717997839998 -134.98783714146563 130.04775309344043 -33.610717997839977 -134.98783714146563 130.04775309344043 -72.954323634888269 -3.4045693161356947e-06 1.5414338774412167e-05 2.7938508494960588e-05 7.2593990560314685 8.0267881230611227e-10 1.8734702678102624e-10 6.5219436180541371e-06 -0.00073604378858965877 -9.4832619708262184e-11 -1.2754619743895170e-10 8.4625256989042775e-10 -0.00068773333231411822 -32.495446914399992 -133.95681332000001 137.60295016000006 48.530522504776933 0.0000000000000000 0.0000000000000000 0.0000000000000000 0.0000000000000000 3.3542507997838222 3.7371295443769745 1.3835211472930451 1.1755036806639807 1375.3831980421126 1375.3826340118540 1.1762270809765203 
-29.427748887648381 -137.51836491289671 133.07066594086288 -29.427748887648374 -137.51836491289671 133.07066594086288 -82.775516776045322 2.0429396196493280e-05 3.4326730522112965e-05 2.7733231849272796e-05 -93.401813365469422 7.2658767891198305e-10 1.9618440205704246e-10 6.2492994175045177e-06 -0.00098583630187153463 2.8908422773667722e-10 -4.4265146377568468e-10 5.2713966742730164e-11 -0.0011386343365848484 -28.418203856399998 -136.43877710800004 140.31002455199999 44.353383947079159 0.0000000000000000 0.0000000000000000 0.0000000000000000 0.0000000000000000 3.3393703467475082 3.7031074025719932 1.3642267321020471 1.1707664134668720 1342.5761146202453 1342.5763428879654 1.1680069987635426 
-27.735128943293418 -130.44558955076815 137.02179570241660 -27.735128943293422 -130.44558955076812 137.02179570241654 -104.30561047087632 1.7984122068150373e-05 2.2580241916808709e-05 9.2800641606956850e-06 0.0000000000000000 6.9579664252472629e-10 1.7151835507434043e-10 5.8929369899374251e-06 -0.00093507634815821565 -5.7536902266122405e-11 -1.1413293055873854e-10 2.0751624812622665e-10 0.0000000000000000 -26.768365491316434 -129.50173712462359 143.84833436668455 49.139845408488213 0.0000000000000000 0.0000000000000000 0.0000000000000000 0.0000000000000000 3.3409911324304447 3.7079861244718724 1.3675561901276128 1.1705939969970229 1400.8889432623027 1400.8880416861941 1.1694228535541098 
-41.380414898732212 -65.167148742647740 148.30581343278419 -41.380414898732212 -65.167148742647754 148.30581343278419 -181.18572125716909 -2.6792181084685510e-07 -1.0197487796917179e-05 3.5634420436678085e-05 -185.05943250859914 9.4401997330351151e-10 -5.6137539061751340e-11 4.8752027623777394e-06 -0.0014177836310890891 -7.8998862808061587e-11 1.4921795667345990e-11 5.1863336930031302e-11 -0.0014216814617422021 -40.068761925200000 -65.476070995999990 153.95338104800004 156.95717166164070 0.0000000000000000 0.0000000000000000 0.0000000000000000 0.0000000000000000 3.3377330296089216 3.7003941169714589 1.3631871283111106 1.1668833603849817 1509.3129466783444 1508.2003438848662 1.1675585800515325 
-54.058863231229282 -59.232969720660641 143.06910807264444 -54.058863231229275 -59.232969720660655 143.06910807264444 -181.19242878719530 -2.0077140322284873e-05 -3.8717368167652210e-07 1.5270656119217067e-05 -184.10959842013520 1.1746543737700677e-09 -7.6832318285369183e-11 5.3475145094239451e-06 -0.0014671409372810575 -2.0332919144988797e-11 1.2929206476791726e-11 -3.4174259488263357e-11 -0.0014423910032006963 -52.426757905599978 -59.655776269200025 149.26381449600007 118.05125250056595 0.0000000000000000 0.0000000000000000 0.0000000000000000 0.0000000000000000 3.3401498150210283 3.7056736094274130 1.3660623601559521 1.1668970220434562 1517.1810604044911 1519.6206093799885 1.1687898489853024 
-36.357617213760619 -65.731682011636835 138.30737130100266 -36.357617213760605 -65.731682011636835 138.30737130100263 -165.94959826081097 5.9439691232030127e-06 -5.3091120825655733e-06 -2.8241300072814016e-06 -164.94033485504104 8.5264473259627504e-10 -5.4166227059226912e-11 5.7769876420366018e-06 -0.0013871084835493232 -7.2708229349318443e-11 7.0229979828236541e-11 -6.9024552445859567e-11 -0.0013651758627923074 -35.172917262399999 -66.029770167599992 144.99959110400002 155.12084301790807 0.0000000000000000 0.0000000000000000 0.0000000000000000 0.0000000000000000 3.3392588700434582 3.7031707615265641 1.3644184291120853 1.1676912183908628 1487.3397702325724 1497.1887704984329 1.1680832966221506 
-51.992710823454367 -66.303004421944422 135.18502319544083 -51.992710823454367 -66.303004421944465 135.18502319544083 -169.48432536370100 -1.4758124513317142e-05 1.4685785673023813e-05 6.7521588721026166e-06 0.0000000000000000 1.1370684394051978e-09 -5.2170490150160731e-11 6.0586001708884396e-06 -0.0014686933439724394 -4.9236658399486120e-11 -3.8832485915584948e-13 -4.3002817150622356e-11 0.0000000000000000 -50.412828244765279 -66.590128188430739 142.20347059834828 136.07757377940416 0.0000000000000000 0.0000000000000000 0.0000000000000000 0.0000000000000000 3.3310555636597461 3.6843489171911643 1.3536864968071596 1.1648395529779247 1464.1774250286580 1460.2687312786513 1.1634759709785534 
-97.284364287316990 -160.23224667141764 63.074169393559686 -97.284364287316990 -160.23224667141764 63.074169393559707 -607.76550202559122 -3.5566437285345857e-05 -3.2168035740228988e-05 -6.5015658570721503e-05 -607.96118116411242 1.9609760482097727e-09 2.7536950497619723e-10 1.2562461314757911e-05 -0.0024042141222804991 -4.8420714953976999e-10 5.3955141359471770e-10 -2.1492649716748811e-10 -0.0022723119777046346 -94.559718839999974 -158.71675115199997 77.626866652000004 109.98746742214213 0.0000000000000000 0.0000000000000000 0.0000000000000000 0.0000000000000000 3.3384558299881850 3.7016935434627833 1.3637517757447584 1.1680438801328317 2253.6034710965641 2253.6034543787760 1.1677950186996411 
-92.280305534408555 -159.97700225681885 68.447020017703977 -92.280305534408555 -159.97700225681882 68.447020017703963 -532.37613692116247 -8.9829328024699739e-05 -8.1256819114435835e-05 -0.00010877679686305767 -510.09801537859317 1.8699386483689295e-09 2.7449775785726160e-10 1.2077870263027535e-05 -0.0022044191795470231 -4.4419634938530642e-10 6.6645516260812977e-10 -5.4223273276277333e-11 -0.0021090250474822968 -89.682139475999989 -158.46640519600001 82.438353807199988 112.88451412247700 0.0000000000000000 0.0000000000000000 0.0000000000000000 0.0000000000000000 3.3409998167339059 3.7064225384902145 1.3659146916781209 1.1680438801328310 2120.1600107090517 2120.1598836445055 1.1687159833986309 
-105.64585165039462 -156.38571441353673 73.104246185820770 -105.64585165039458 -156.38571441353673 73.104246185820770 -518.22864863498148 -1.9460023827648957e-05 -7.1645248231112558e-06 -0.00013617357721472216 0.0000000000000000 2.1130748262265797e-09 2.6198243574526709e-10 1.1657823193900185e-05 -0.0027197752083730547 -3.9243866163494535e-10 5.6167807208040252e-10 -2.9478662963486066e-10 0.0000000000000000 -102.70986659571734 -154.94403864466588 86.608986019839278 111.02505284862640 0.0000000000000000 0.0000000000000000 0.0000000000000000 0.0000000000000000 3.3405547588156521 3.7062508181303278 1.3662149665343508 1.1659592109906589 2111.8325608097166 2111.8326265677442 1.1688709376172211 
-103.28333630445316 -168.85488803834315 69.822448145212221 -103.28333630445319 -168.85488803834320 69.822448145212263 -569.25604240846326 -8.2324839192621704e-06 -1.9177820116683182e-05 -0.00013211038911840680 0.0000000000000000 2.0700940961404517e-09 3.0544144991040407e-10 1.1953816901666416e-05 -0.0021817679126255448 -3.4089283984532377e-10 2.7828281263633468e-10 -7.6882126593781764e-11 0.0000000000000000 -100.40706467681501 -167.17391327890167 83.670075146830683 105.53983917324770 0.0000000000000000 0.0000000000000000 0.0000000000000000 0.0000000000000000 3.3384260398833447 3.7016151134295510 1.3636992162085777 1.1663840626938295 2177.3389813744793 2177.3389966135128 1.1677770763843400 
-117.86899156641233 -100.16865166155624 84.229954696601041 -117.86899156641236 -100.16865166155624 84.229954696601027 -353.24612131278502 -1.9582238507898839e-05 -2.8541621144592345e-05 -8.5769641163858115e-05 -363.54268451520880 2.3354271853100441e-09 6.5930150228155084e-11 1.0654367272877607e-05 -0.0046439515227564149 -1.1735553575213215e-10 -9.6568116675905196e-11 -6.0608936518574246e-10 -0.0046380702224087886 -114.62406224400000 -99.805851428000011 96.572263865600007 85.211636250682801 0.0000000000000000 0.0000000000000000 0.0000000000000000 0.0000000000000000 3.3411580114769488 3.7076365618955074 1.3669328853498186 1.1616692601327474 1816.3283856801224 1816.3293518873631 1.1691275876918092 
-114.24078726679691 -91.290050784967690 88.304694223864516 -114.24078726679689 -91.290050784967676 88.304694223864530 -309.65182035513681 -6.4666248107008648e-06 1.9844710754955808e-06 -9.2030106466093630e-05 -306.11954517220516 2.2694230938924420e-09 3.4956482153347679e-11 1.0286856159780200e-05 -0.0044786926226505902 5.6548310792711274e-11 3.1978185253783745e-10 -8.0462619104857036e-10 -0.0042837166985553879 -111.08756211600000 -91.097641973600034 100.22126851279998 99.535403830130534 0.0000000000000000 0.0000000000000000 0.0000000000000000 0.0000000000000000 3.3505017026529464 3.7269434103065309 1.3769983676123707 1.1655768336758157 1771.4012614941323 1771.4005885854338 1.1734738906005051 
-116.10468386114084 -97.976535682409136 97.422923228454167 -116.10468386114081 -97.976535682409136 97.422923228454181 -239.14845309130894 -1.1792824692112584e-05 -1.0648228668226917e-05 -0.00010541569474092089 -240.59478261406673 2.3033324136889628e-09 5.8283600168351768e-11 9.4644599215598646e-06 -0.0039402085542706491 -1.4353022234098536e-10 -2.0241792003446096e-10 -8.4343874029138430e-10 -0.0039039312123570970 -112.90434805199999 -97.655804887999992 108.38681131359999 128.09762094244454 0.0000000000000000 0.0000000000000000 0.0000000000000000 0.0000000000000000 3.3403341678800724 3.7068237452219814 1.3670571304325987 1.1664403928587359 1627.2958852413492 1627.2961212875368 1.1691945463067446 
-110.20590843342025 -104.28296025308951 88.671963571744570 -110.20590843342021 -104.28296025308951 88.671963571744541 -299.36953979972299 -9.2011103492536112e-05 -1.2619169433140687e-05 -9.9033822082142945e-05 0.0000000000000000 2.1960244733776335e-09 8.0272677394077631e-11 1.0253731211662400e-05 -0.0045624497554227648 2.5325226236865988e-10 -2.9371431764321827e-10 -5.4265915003720669e-10 0.0000000000000000 -107.15466629968294 -103.84120130723400 100.55016500991876 102.24201981555134 0.0000000000000000 0.0000000000000000 0.0000000000000000 0.0000000000000000 3.3235745075732281 3.6651014517593974 1.3417577391517315 1.1579423771997657 1657.3790514052455 1657.3781665021500 1.1583081722165860 
-27.862131287595048 -116.03124045961491 91.703241152565028 -27.862131287595048 -116.03124045961486 91.703241152565028 -20.600314894675300 3.0495804401564816e-05 2.8844906210129404e-06 -3.6448329674491950e-05 0.0000000000000000 -2.1815611088679049e-07 1.4657822380975612e-06 7.7369767106905176e-06 -0.0017821470117113187 6.0719912514978479e-10 -2.0242914669762144e-09 -1.5428534904608831e-09 0.0000000000000000 -26.889884864405381 -115.37486796036181 103.37575244326078 96.382960025775517 0.0000000000000000 0.0000000000000000 0.0000000000000000 0.0000000000000000 3.3701262882832301 3.7708757778644428 1.4014450665547811 1.1823796247103653 1308.7327975375399 1308.7327747900811 1.1838226861926697 
-112.68216456821760 -104.05923881651319 146.34501515177897 -112.68216456821757 -104.05923881651323 146.34501515177902 -167.45550649186981 -1.4741794426882303e-06 -4.3508182479708774e-06 -5.0865374462431825e-07 -167.93832971520669 2.2410768796277125e-09 7.9494855143025234e-11 5.0520521348573766e-06 -0.0013164677000231104 4.9902533237250267e-12 1.0578022926085827e-11 2.4670862640940817e-11 -0.0012895246258064898 -109.56833416800004 -103.62177336400003 152.19744990400002 70.302883591683823 0.0000000000000000 0.0000000000000000 0.0000000000000000 0.0000000000000000 3.3362962863268284 3.6963064120660856 1.3604788976774931 1.1666021956063533 1479.2889155760192 1479.2880756129418 1.1663974518115121 