# For a description of the Tecplot format see the Tecplot User's guide.
#
Variables=x,y,z,s_u,s_v,s_w,s_p,mono_f_vel_u,mono_f_vel_v,mono_f_vel_w,const,u_nu,v_nu,w_nu,p_nu,x_nu,y_nu,z_nu,const,u_ref,v_ref,w_ref,vol_ref,x_ref,y_ref,z_ref,const,I1,I2,I3,J,p1,p2,p3
Zone f=fepoint, n=356, e=1130, et=brick, c=black
-67.0858 -97.7336 85.1714 -67.085846393657434 -97.733602477771925 85.171400563430794 -126.25935309964596 -9.5007004906521868e-06 1.4171860144777122e-05 -8.4308313164605999e-06 -3.6184551839917072e-20 4.4394301013106485e-09 1.8083956554448830e-10 3.2670404774393085e-05 0.00075875795147223952 3.9199573463922208e-11 -5.7576252869303749e-11 2.5537460191593212e-11 2.2172309295138459e-21 -65.196340044403073 -97.429114013214090 96.966749492950399 1962.9112535355127 0.0000000000000000 0.0000000000000000 0.0000000000000000 0.0000000000000000 3.3244783916249081 3.6717753050219208 1.3477503173273013 1.1611358316462876 847.90169650853829 853.60253050332165 1.1609266846702451 
-77.252623724489951 -131.21534420867479 70.799011686228056 -77.252623724489936 -131.21534420867482 70.799011686228042 -135.20657767144715 -4.0102059927957246e-05 -2.7008591476791565e-06 2.4778734083172288e-06 -100.77219440070500 5.0210619551016586e-09 5.4849347286278761e-10 3.6677239851456989e-05 0.00077778640004163581 1.5003921959960014e-10 4.5522571648745304e-13 -3.8925303823552528e-12 0.00070222219811008645 -75.115563256000002 -130.29184138500000 84.040991542000015 2013.9639834346967 0.0000000000000000 0.0000000000000000 0.0000000000000000 0.0000000000000000 3.3247490241931441 3.6723673503118515 1.3480736317129391 1.1611358316462870 873.87205343129108 867.21991223743453 1.1610660256566550 
-64.712688368711682 -122.33326796979985 62.654624172665315 -64.712688368711682 -122.33326796979985 62.654624172665315 -124.15871233926309 1.4680191772330073e-05 -5.2140836451274647e-07 3.5480687607394629e-06 -103.73392465252537 4.3036542662910912e-09 4.5096126832788741e-10 3.8947789171572822e-05 0.00076758657916487893 -5.1191487182402578e-11 -4.5528567099183204e-11 1.7349428399540546e-11 0.00062494657105247639 -62.880966804699995 -121.57397801100001 76.716364957060009 1170.9855824450976 0.0000000000000000 0.0000000000000000 0.0000000000000000 0.0000000000000000 3.3252507193307292 3.6733667551536859 1.3485700766084623 1.1611358316462881 835.80759297234272 834.95306361853568 1.1612791212552611 
-57.315849020457790 -132.75488379877174 68.409069124393056 -57.315849020457790 -132.75488379877174 68.409069124393042 -106.89341509001980 2.8971070288566987e-05 5.8124751324082477e-06 -1.7457889612879757e-05 -116.38687315586495 3.8804918722767923e-09 5.6541415993649480e-10 3.7343524759592128e-05 0.00070338751694984706 -7.6268894342918444e-11 7.4046926653859515e-12 8.3999486357886757e-11 0.00088283646511575528 -55.664235468099989 -131.80291778700004 81.891605011000010 1977.7795635233642 0.0000000000000000 0.0000000000000000 0.0000000000000000 0.0000000000000000 3.3242492809451987 3.6713561900557674 1.3475626537152634 1.1611358316462879 822.22938388043872 811.72948922751846 1.1608467311382127 
-125.22630827507835 -110.77445114371940 81.797935977307375 -125.22630827507835 -110.77445114371940 81.797935977307375 -195.00373608329301 -2.4438287739494082e-06 6.0188717589960654e-06 -3.4846456174170695e-05 -208.08934332846223 7.7655916697061400e-09 3.2404146033115921e-10 3.3610882820056524e-05 0.00089269023268927076 -8.9279139822778472e-12 -3.0873516276650064e-11 3.6243756082974894e-11 0.00090542578898316598 -121.92112118800000 -110.22886194300000 93.932835849999989 1979.3501102100577 0.0000000000000000 0.0000000000000000 0.0000000000000000 0.0000000000000000 3.3250265101894234 3.6729220400681220 1.3483502111540810 1.1611358316462876 999.34335742635631 996.53727799458352 1.1611848557255642 
-125.09602328100706 -129.13193415174396 86.352358839193158 -125.09602328100706 -129.13193415174396 86.352358839193144 -184.10012460430522 -2.9178773931903928e-06 -1.5543970335954733e-06 -2.8001379292836615e-05 -201.99050081831953 7.7581363000511772e-09 5.2563309260733614e-10 3.2341168967775502e-05 0.00086591575021093068 -2.9214626694860252e-12 -8.7268090369726614e-12 1.2464035572447051e-11 0.00081120288211783409 -121.79400854500000 -128.24694965699999 98.028840211000002 2171.1766123060684 0.0000000000000000 0.0000000000000000 0.0000000000000000 0.0000000000000000 3.3251714514060797 3.6731998582317829 1.3484825369297615 1.1611358316462870 970.82233193370143 973.38347557356053 1.1612414302899050 
-89.041689774739694 -120.06203151531574 101.83358678336786 -89.041689774739694 -120.06203151531567 101.83358678336786 -140.08859532306622 -2.0598752022164703e-05 5.7669904602611122e-07 -2.3009451296843814e-05 -1.2686463641264002e-19 5.6954942428966157e-09 4.2603409688979355e-10 2.8025203977932730e-05 0.00077409437073267114 8.6538585466864948e-11 -3.0154974637319134e-12 3.1344841082795546e-11 1.0547051267631821e-20 -86.617573559112500 -119.34473244186394 111.95182872039791 1753.2209356453191 0.0000000000000000 0.0000000000000000 0.0000000000000000 0.0000000000000000 3.3243429309118726 3.6715714463075284 1.3476845673291153 1.1611358316462870 888.01902783937464 890.02201729983176 1.1608985375140797 
-124.20778452386784 -119.45012673323629 100.79574175604661 -124.20778452386786 -119.45012673323629 100.79574175604661 -158.72771853159469 -1.6218007705218690e-06 5.4539769646318176e-06 -1.6912332607244606e-05 -153.30643351542506 7.7073156190543557e-09 4.1931502714476210e-10 2.8314541673069012e-05 0.00081299893401351876 -8.6852254750440596e-13 -2.2007195870470492e-11 2.7933559210694893e-11 0.00081303756986003499 -120.92739779800000 -118.74414062699999 111.01844640460000 1486.9218523490313 0.0000000000000000 0.0000000000000000 0.0000000000000000 0.0000000000000000 3.3249395760924441 3.6726702509265041 1.3481824705689718 1.1611358316462872 920.85718035540208 922.55472236851142 1.1611126023779936 
-45.130003012575180 -164.71888959040353 118.49576758809781 -45.130003012575202 -164.71888959040356 118.49576758809781 -89.942065280897623 3.7187280759804262e-05 -3.9988330277528868e-05 1.3665444047735406e-05 0.0000000000000000 3.1833519709145715e-09 9.1639784649544233e-10 2.3380004684270265e-05 0.00062328933777707656 -1.5929462112501413e-10 1.7461698206797772e-10 -2.0230273663495043e-11 0.0000000000000000 -43.775106529693616 -163.17596929916377 126.93690307769774 1219.2399513932846 0.0000000000000000 0.0000000000000000 0.0000000000000000 0.0000000000000000 3.3220896534478701 3.6663350525001315 1.3446712193315733 1.1612873630017080 776.16969208850799 818.52044191565437 1.1596024292377665 
-15.931872847673654 -144.69673076999734 131.72173265499532 -15.931872847673651 -144.69673076999737 131.72173265499532 -87.363538774583859 7.9242768939983855e-06 -2.8298181440012546e-05 6.4660357664042032e-06 -81.163853123267685 1.5129515973377752e-09 6.9653238732314549e-10 1.9692777634361391e-05 0.00062349291309500598 -2.6700082455458829e-11 1.2091257845597062e-10 -2.2777034732910035e-11 0.00062044254685544398 -15.287930992899994 -143.52398249399997 138.83162876200001 1142.5393367497743 0.0000000000000000 0.0000000000000000 0.0000000000000000 0.0000000000000000 3.3214477963142759 3.6652908947255454 1.3442838642986803 1.1608489775670943 790.77714642524029 783.35721028931050 1.1594341808084185 
-45.130003012575180 -164.71888959040353 135.15794839282771 -45.130003012575173 -164.71888959040362 135.15794839282773 -118.76816292231248 5.5979894897481773e-06 -2.0842644020316075e-05 1.1955885727569812e-05 0.0000000000000000 3.1833519709145715e-09 9.1639784649544254e-10 1.8734805394160503e-05 0.00071240704806275806 -2.2382988456602406e-11 1.0646196333694670e-10 -4.4375500679937500e-11 0.0000000000000000 -43.775106529693623 -163.17596929916371 141.92197743499761 2138.0712005850128 0.0000000000000000 0.0000000000000000 0.0000000000000000 0.0000000000000000 3.3241511419737400 3.6710530608938865 1.3473524614664993 1.1609410011636594 854.77338890432634 855.52368198453064 1.1607553351945514 
-6.1680329363494844 -162.52451552167383 125.71497509707584 -6.1680329363494861 -162.52451552167389 125.71497509707586 -147.54851887156522 2.4006250022708192e-05 -2.3042548108825939e-05 9.6019513176501487e-06 -158.49892739106650 9.5437158176281400e-10 8.9229623689846004e-10 2.1367383524761859e-05 0.00075959389401658855 -9.1943511543985209e-11 1.0337039963380626e-10 -2.5551591921398849e-11 0.00075266970899685122 -5.7618339484599987 -161.02216507500000 133.42947224320002 1741.2893742699428 0.0000000000000000 0.0000000000000000 0.0000000000000000 0.0000000000000000 3.3255370490432417 3.6740495660080366 1.3489713032571433 1.1611358316462854 908.44629243670033 920.21270737011957 1.1614522372337033 
-10.134873368469918 -107.45244695962670 181.72069524964522 -10.134873368469917 -107.45244695962671 181.72069524964519 -155.39455436676056 -6.4283716030180221e-06 4.5758158034739252e-06 1.2151304779768998e-05 -158.72379569877617 1.1813111044922664e-09 2.8756463876788985e-10 5.7537171791466335e-06 0.00079679119618835217 5.4814383766122970e-12 -2.4960084664058221e-11 -1.7792172323289850e-11 0.00081800517504648286 -9.6320845117000005 -106.96827536100001 183.79802188000005 966.19067172024859 0.0000000000000000 0.0000000000000000 0.0000000000000000 0.0000000000000000 3.3249138720134503 3.6726831267478142 1.3482235307672501 1.1611358316462872 918.92080311353652 917.76047537612260 1.1611302456469275 
-18.055845600266849 -109.00102252285217 192.80685175219401 -18.055845600266849 -109.00102252285217 192.80685175219401 -166.27131885235659 -8.2735042538060913e-06 4.2097619875644613e-06 4.4983481111962248e-06 -172.27128385183818 1.6344615660912609e-09 3.0456859256844382e-10 2.6630409557526491e-06 0.00081176417996228019 1.4478769016136176e-11 -2.5712713776535042e-11 -1.2547540189110497e-11 0.00084050040384436235 -17.360186452300006 -108.48822067799998 193.76831817399997 1163.9017450188298 0.0000000000000000 0.0000000000000000 0.0000000000000000 0.0000000000000000 3.3248883776206659 3.6726285263210992 1.3481943053034064 1.1611358316462874 943.04967212351789 941.96194266712405 1.1611176349843286 
-45.130003012575180 -120.06203151531574 168.48231000228762 -45.130003012575237 -120.06203151531558 168.48231000228768 -158.02031170590061 1.7250726773899599e-06 1.1409733839320140e-05 1.8145168012545940e-05 0.0000000000000000 3.1833519709145727e-09 4.2603409688979365e-10 9.4444068068355591e-06 0.00079806870287052239 -3.2960197073923368e-12 -4.2593738854670795e-11 -1.0823593714417250e-11 0.0000000000000000 -43.775106529693538 -119.34473244186404 171.89212614959743 1771.3229973881550 0.0000000000000000 0.0000000000000000 0.0000000000000000 0.0000000000000000 3.3251118651035645 3.6730933840671378 1.3484361083639560 1.1611358316462888 922.87259104150701 928.34520187254270 1.1612221253222546 
-9.6782118379225892 -124.97034539074615 187.98097275298920 -9.6782118379225892 -124.97034539074615 187.98097275298917 -158.18424955703145 -4.9616581834784033e-06 -4.9783207736220247e-06 9.4218109247635930e-06 -158.07237595815675 1.1551856693436946e-09 4.7992965157561674e-10 4.0084332475487372e-06 0.00079957264307889777 -6.3918838630500580e-12 1.7799306141112679e-11 -1.7068209589435601e-11 0.00080989311402855364 -9.1865423791000023 -124.16230083600000 189.42818068000000 961.51487702825557 0.0000000000000000 0.0000000000000000 0.0000000000000000 0.0000000000000000 3.3248751401654166 3.6726010796350157 1.3481800685264083 1.1611358316462865 925.21391047072461 923.98199486227247 1.1611114803552558 
-45.130003012575180 -164.71888959040353 101.83358678336786 -45.130003012575195 -164.71888959040359 101.83358678336785 -120.72722186490213 1.3896189244140690e-05 -5.8809492492439360e-05 -4.6973912075089343e-05 8.2159513218587698e-19 3.1833519709145715e-09 9.1639784649544254e-10 2.8025203977932733e-05 0.00068961926326904495 -5.9616533403352827e-11 2.4409027758953582e-10 5.9687084640304873e-11 -6.8737694510446868e-20 -43.775106529693623 -163.17596929916374 111.95182872039793 1372.1117852990953 0.0000000000000000 0.0000000000000000 0.0000000000000000 0.0000000000000000 3.3278625788541953 3.6792969458395821 1.3519107044438929 1.1621358582797787 857.00077051824201 876.49154312278085 1.1627159416222350 
-62.404474115888043 -162.01393548215569 78.383444348833820 -62.404474115888050 -162.01393548215572 78.383444348833805 -176.40619668800758 -1.8010395073218716e-05 -5.4282989420792143e-05 -1.4214856383427300e-05 -181.88112235284839 4.1716114451695319e-09 8.8670160103276864e-10 3.4562798674642181e-05 0.00080772831028798602 5.8843474397579789e-11 1.9474592064538107e-10 8.7916506864542375e-11 0.00090799681503589966 -60.628956000399988 -160.52102469899998 90.862024679199990 1556.8824791929137 0.0000000000000000 0.0000000000000000 0.0000000000000000 0.0000000000000000 3.3218224765826370 3.6664754768343415 1.3451107789731092 1.1604605927977398 964.25573713799531 963.70417398219581 1.1597887607926571 
-45.188195992293032 -169.15435167937341 75.478519435235626 -45.188195992293018 -169.15435167937341 75.478519435235611 -204.02710379186365 2.6814456041123849e-06 -5.6050304298853246e-05 -9.5157847583407719e-06 -172.37318231397589 3.1866779770517444e-09 9.6510954783468605e-10 3.5372653968579471e-05 0.00085941979649848386 6.2676503925947448e-13 2.0430192271355068e-10 6.2070442767818469e-11 0.00088210287326253960 -43.831882549900001 -167.52942804599996 88.249490561200005 1643.6708107299999 0.0000000000000000 0.0000000000000000 0.0000000000000000 0.0000000000000000 3.3249455437353905 3.6726601273241486 1.3481659551221237 1.1611358316462870 1002.9522570858916 999.98064455689030 1.1611057470831088 
-45.130003012575180 -187.04731862794742 101.83358678336786 -45.130003012575166 -187.04731862794756 101.83358678336791 -213.69342763771652 -5.6460737772589912e-07 -2.7194447130525589e-05 -2.4491275085071468e-05 -5.3363604685039150e-20 3.1833519709145719e-09 1.1615799433428720e-09 2.8025203977932740e-05 0.00088059916017151302 1.2609482592261020e-11 1.1755835330856104e-10 6.6332974964244958e-12 4.5056465664109403e-21 -43.775106529693623 -185.09158772781387 111.95182872039791 1529.2408403851955 0.0000000000000000 0.0000000000000000 0.0000000000000000 0.0000000000000000 3.3239041446618947 3.6705111670848019 1.3470548958734911 1.1609330542477172 1024.1426646252830 1022.7090740384328 1.1606266147582314 
-89.041689774739694 -142.39046055285965 135.15794839282771 -89.041689774739680 -142.39046055285965 135.15794839282768 -146.41457768388625 -7.8690353445519960e-06 -7.9152783468188397e-06 6.8623696189694684e-06 0.0000000000000000 5.6954942428966149e-09 6.7121619373722286e-10 1.8734805394160506e-05 0.00077702151211115256 3.7113685572069364e-11 3.0851243849495001e-11 -1.4337292536554417e-11 0.0000000000000000 -86.617573559112486 -141.26035087051392 141.92197743499761 1776.4810640138739 0.0000000000000000 0.0000000000000000 0.0000000000000000 0.0000000000000000 3.3230048327162542 3.6685227545676011 1.3459621872830090 1.1602360846613706 904.27626688139458 903.94361464939641 1.1601532712614404 
-67.085846393657434 -164.71888959040353 135.15794839282771 -67.085846393657434 -164.71888959040365 135.15794839282776 -135.37048221477434 -1.8859528988381694e-05 -8.6245872634937368e-06 1.0900117404310880e-05 -9.8650814872650233e-21 4.4394301013106485e-09 9.1639784649544254e-10 1.8734805394160503e-05 0.00074871892022886424 8.2314050187571860e-11 4.9673703022630421e-11 -3.0972647470633509e-11 5.7553085599433955e-22 -65.196340044403016 -163.17596929916368 141.92197743499761 1909.2349168221303 0.0000000000000000 0.0000000000000000 0.0000000000000000 0.0000000000000000 3.3227333259014253 3.6679573446392064 1.3456660642201597 1.1605711794730449 881.14303258570465 881.05308679345057 1.1600284473187588 
-89.041689774739694 -164.71888959040353 118.49576758809781 -89.041689774739694 -164.71888959040362 118.49576758809781 -163.32690594464748 -1.2851203461501817e-05 -1.2274985730514896e-05 -8.8128790357784049e-06 0.0000000000000000 5.6954942428966141e-09 9.1639784649544254e-10 2.3380004684270261e-05 0.00080316486772837059 5.5615022607183327e-11 4.9530492456594957e-11 1.1094513992130327e-11 0.0000000000000000 -86.617573559112500 -163.17596929916371 126.93690307769781 1465.4254424602818 0.0000000000000000 0.0000000000000000 0.0000000000000000 0.0000000000000000 3.3260363662998929 3.6750565418286345 1.3494778895600661 1.1612656608762253 936.28100733930194 939.17877460285933 1.1616694914390178 
-89.041689774739694 -142.39046055285965 118.49576758809782 -89.041689774739666 -142.39046055285965 118.49576758809782 -123.90427052142034 -3.4008966424938235e-05 -2.3280026050874105e-05 4.4651505705036027e-06 0.0000000000000000 5.6954942428966149e-09 6.7121619373722297e-10 2.3380004684270258e-05 0.00072281655808970220 1.5098630177677134e-10 9.1163158059188921e-11 5.7871252810409718e-12 0.0000000000000000 -86.617573559112472 -141.26035087051395 126.93690307769782 1314.1623031803638 0.0000000000000000 0.0000000000000000 0.0000000000000000 0.0000000000000000 3.3233859126977436 3.6688836062769603 1.3459248000031601 1.1609657965597988 855.87358762785868 845.69507298343069 1.1601437454743715 
-46.169972454077403 -110.72004507393470 38.794727025339967 -46.169972454077417 -110.72004507393468 38.794727025339967 -249.19251359173523 1.1918377824964379e-05 1.6416860619796477e-05 -2.3871022008400821e-05 -250.23999948386287 3.2428501550718636e-09 3.2344682487916998e-10 4.5599618157865507e-05 0.0010149322249842574 1.3757964286053327e-11 -1.8202179996123438e-11 6.7217911820628118e-11 0.00097207803183481888 -44.789753421999997 -110.17546173899997 55.258049440000001 1011.3304348559651 0.0000000000000000 0.0000000000000000 0.0000000000000000 0.0000000000000000 3.3249411957396284 3.6727393032847577 1.3482523954946459 1.1611358316462870 1083.6485528631126 1083.5432628319445 1.1611426938288114 
-58.304116349857772 -99.064724054841037 36.002004455021677 -58.304116349857786 -99.064724054841022 36.002004455021698 -281.44777168957876 -1.0561459723014456e-05 1.9387468311340400e-05 -3.2572164853475955e-05 -283.20868876832725 3.9370282034489890e-09 1.9546542162629521e-10 4.6378192887885916e-05 0.0010880459951229859 7.2680986968317350e-11 -1.5337240795304734e-11 6.5048614534669423e-11 0.0011713092031457306 -56.628439159600013 -98.735625658800004 52.746424109200007 1395.9618554683195 0.0000000000000000 0.0000000000000000 0.0000000000000000 0.0000000000000000 3.3249289388786045 3.6727129486860592 1.3482382440804155 1.1611358316462874 1143.6759489984152 1143.5902344669510 1.1611366147435869 
-61.372762867072332 -105.91024413534450 47.759465703589520 -61.372762867072318 -105.91024413534454 47.759465703589520 -225.38975708493280 3.3304856127569603e-06 5.9138453701212913e-05 -5.8831032379276208e-05 -134.92561437951511 4.1125833294408665e-09 2.7063307150854138e-10 4.3100365612502849e-05 0.00097505509220945725 6.9339269392266974e-11 -9.0815133024202223e-11 2.0422250699287800e-10 0.0012956956130405030 -59.622366219399986 -105.45458496299997 63.320455991800024 1631.5611169842575 0.0000000000000000 0.0000000000000000 0.0000000000000000 0.0000000000000000 3.3248925434449750 3.6726370438226890 1.3481986747890244 1.1611358316462876 1033.6286683153562 1034.4186677240052 1.1611196157817116 
-19.928217733656055 -88.207117766639797 48.226331931548650 -19.928217733656059 -88.207117766639826 48.226331931548650 -234.29832820679724 -8.1022349589171648e-06 4.1931039108619413e-06 -4.7523949467435825e-05 -237.52951034022396 1.7415802133768921e-09 7.6234352164306074e-11 4.2970209385373437e-05 0.00098671964653222863 8.1870185099626109e-12 -6.9041499843437136e-11 1.0119920341467972e-11 0.00098808934579971432 -19.186967596599999 -88.078756066199972 63.740330510200010 1361.9683039629940 0.0000000000000000 0.0000000000000000 0.0000000000000000 0.0000000000000000 3.3249147380694031 3.6726830358487899 1.3482224963331109 1.1611358316462876 1061.8500293192915 1062.2901077548972 1.1611298571907667 
-59.985868349423100 -179.88176386211779 70.661250092052995 -59.985868349423079 -179.88176386211777 70.661250092053010 -255.76946060422887 -4.8052414866090846e-06 -1.1182258198126092e-05 -1.4793131529066859e-05 -266.72279773169163 4.0332423512090551e-09 1.0828846708221818e-09 3.6715645993723456e-05 0.00096219966885372670 2.1157383786372244e-11 1.1039676529128427e-11 7.1180156039875475e-11 0.0010791927661606029 -58.269241640800026 -178.05851057700005 83.917096131400029 1498.9894771187792 0.0000000000000000 0.0000000000000000 0.0000000000000000 0.0000000000000000 3.3260950828097431 3.6752426536570808 1.3496089412471799 1.1611358316462872 1101.4944510198607 1102.3740005536890 1.1617278094707966 
-75.946490938628628 -186.32070319803779 63.704271131879622 -75.946490938628614 -186.32070319803779 63.704271131879629 -265.90986279452255 -1.0893032462812179e-06 -9.6999452470952823e-06 -3.4799014398375277e-06 -268.45610596566127 4.9463408369199149e-09 1.1535996602418661e-09 3.8655161247902470e-05 0.00099002565916700446 -4.4848063280190744e-12 1.0285937069114345e-11 1.7546081518603970e-11 0.00095871230268049581 -73.841233915900020 -184.37840604900001 77.660361299260003 1118.5962234853314 0.0000000000000000 0.0000000000000000 0.0000000000000000 0.0000000000000000 3.3248098417766347 3.6723638790546520 1.3480035468313361 1.1611358316462870 1119.8893027899992 1119.6371934501606 1.1610351242641370 
-71.137394028252814 -213.32047625275675 79.011530467054811 -71.137394028252828 -213.32047625275666 79.011530467054826 -260.59821872200206 2.1195744860871919e-06 2.0541145492025083e-06 -1.4137439565358510e-05 -260.56536780736275 4.6712155810091369e-09 1.4500722844701386e-09 3.4387696430826509e-05 0.00097238145974587627 -5.0103343713952129e-12 3.2340015714284650e-12 1.5784824226460903e-11 0.00097836353561815150 -69.149235247299998 -210.87900414000003 91.426891745200010 1316.5891353856312 0.0000000000000000 0.0000000000000000 0.0000000000000000 0.0000000000000000 3.3251310725587975 3.6732429150319352 1.3485712926276265 1.1611358316462874 1105.8789717813713 1105.9023302733497 1.1612805785961398 
-88.512511351726673 -208.94858710662953 82.970715923061391 -88.512511351726658 -208.94858710662950 82.970715923061363 -249.13757152907527 1.0951291002001832e-05 -5.2360607186462596e-06 -1.6823514037710409e-05 -268.13083537973432 5.6652322277805930e-09 1.4020551386551006e-09 3.3283927031391158e-05 0.00095659064898773898 -2.9113353309951781e-11 1.9871298438697963e-11 -1.7835456594734360e-11 0.00097347185402419636 -86.101280271099995 -206.58794299200005 94.987571415399998 1849.5997999231981 0.0000000000000000 0.0000000000000000 0.0000000000000000 0.0000000000000000 3.3257686636728940 3.6745368430661727 1.3492277065819693 1.1611358316462872 1096.2392473347359 1096.3103294909031 1.1615634438097830 
-75.855160503086182 -214.33060293302543 93.997350104586346 -75.855160503086182 -214.33060293302543 93.997350104586346 -240.31425205379310 1.1680086238764514e-07 7.4051078306718304e-07 -5.5199143003234167e-06 -246.79662114383208 4.9411068014926221e-09 1.4611749588056000e-09 3.0209844833706256e-05 0.00093552435939355005 -1.6347745565720961e-12 -1.3685401498278877e-12 1.1742610742843714e-11 0.00094929043880257228 -73.752127314399999 -211.87045547999998 104.90433651700000 935.08208219187054 0.0000000000000000 0.0000000000000000 0.0000000000000000 0.0000000000000000 3.3257171037811188 3.6745453306322320 1.3492926752980205 1.1611358316462872 1079.8143264011544 1080.2189111525217 1.1615918771359388 
-67.085846393657434 -187.04731862794742 101.83358678336785 -67.085846393657434 -187.04731862794756 101.83358678336788 -212.34458585398806 5.0638163635658619e-06 -2.1747620741618474e-05 -2.6613803779014244e-05 -4.3109331213105317e-19 4.4394301013106485e-09 1.1615799433428720e-09 2.8025203967274592e-05 0.00088620545718563119 -7.3171612965737741e-12 9.2269570236785522e-11 9.6767949654783834e-12 3.5932746803871034e-20 -65.196340044403016 -185.09158772781387 111.95182872039793 1710.5411337269345 0.0000000000000000 0.0000000000000000 0.0000000000000000 0.0000000000000000 3.3219072868472108 3.6658038586783759 1.3443167742951001 1.1602844423928407 1017.5586603047335 1015.8297739123929 1.1594440952373308 
-85.101513655546924 -210.04973932673036 102.91310672495541 -85.101513655546924 -210.04973932673036 102.91310672495544 -222.01325127085829 6.6645471344556042e-06 -5.5990327951914410e-06 -2.0666788471418823e-05 -217.28102343257314 5.4700909912774875e-09 1.4141618986940332e-09 2.7724247850358097e-05 0.00090645126980429811 -2.4482063059820013e-11 1.2785993030397463e-11 3.2998558330059634e-11 0.00090517836533668037 -82.773338050899994 -207.66873698099997 112.92269122540003 1217.6379143129484 0.0000000000000000 0.0000000000000000 0.0000000000000000 0.0000000000000000 3.3259959486259767 3.6750929282426941 1.3495604148990972 1.1611358316462881 1033.3890907263069 1035.6270122760054 1.1617066200186936 
-42.467671353350340 -130.69458680994873 56.809411585177372 -42.467671353350347 -130.69458680994873 56.809411585177372 -174.85683793975321 1.7551529047467956e-05 8.7249043557815623e-06 -2.8354013500064439e-05 -179.20240939906623 3.0310402521216413e-09 5.4278870287305391e-10 4.0577358408455659e-05 0.00084955860764423889 -2.6813980383038425e-11 1.2542475091546959e-11 1.0350334993746555e-10 0.00095049378021662249 -41.177600837199989 -129.78071180999999 71.459493345580000 2063.2509735647445 0.0000000000000000 0.0000000000000000 0.0000000000000000 0.0000000000000000 3.3251038943361588 3.6730882730404555 1.3484393156032477 1.1611358316462876 963.73696264613193 962.87946773324813 1.1612229490719592 
-23.369322206283428 -135.15188968101762 46.315832935241851 -23.369322206283432 -135.15188968101759 46.315832935241858 -216.10278099515412 9.2870904748359423e-06 4.5938120353136467e-06 -1.1200449467911772e-05 -218.99146939299271 1.9384424621016194e-09 5.9172111654959281e-10 4.3502831655217726e-05 0.00093180565572342799 -7.7261615542224528e-12 9.8995061345386246e-12 2.1034585276852635e-11 0.00092414484261437683 -22.544283513700002 -134.15560754399999 62.022129882400009 885.37450795058874 0.0000000000000000 0.0000000000000000 0.0000000000000000 0.0000000000000000 3.3248375461977728 3.6725153540606001 1.3481316047505700 1.1611358316462879 1025.5500546903079 1025.3941879715394 1.1610908434649116 
-11.401705540900698 -103.89931209445552 52.924648194565393 -11.401705540900700 -103.89931209445557 52.924648194565400 -211.59394668874000 -6.6201595292755066e-06 -6.5368987557929769e-06 -4.1031734685213789e-05 -204.33469712572190 1.2537847426941082e-09 2.4854918123651260e-10 4.1660379913821537e-05 0.00092559243898303334 -3.4331186148326802e-12 -3.0517673885615238e-11 1.4890360505025437e-11 0.00091731959283615711 -10.868070181599997 -103.48083126899998 67.965744901059992 1215.6056386602015 0.0000000000000000 0.0000000000000000 0.0000000000000000 0.0000000000000000 3.3248814676573635 3.6726122683272262 1.3481848942688197 1.1611358316462870 1027.0925307079792 1028.0400058059201 1.1611137174696948 
-29.683795350381331 -141.55506558644976 61.408667119197034 -29.683795350381331 -141.55506558644973 61.408667119197034 -176.38025406896148 1.1434813234415248e-05 1.4917705780774705e-05 -3.0409962287400076e-05 -170.91179695774761 2.2996882731440844e-09 6.6202932025305472e-10 3.9295145789708386e-05 0.00084124109044314088 -2.1511945738660264e-11 6.1150131400400903e-12 9.3007224834111931e-11 0.00095864188900991591 -28.705003527699994 -140.44040078399999 75.595817814339981 2059.5227122681431 0.0000000000000000 0.0000000000000000 0.0000000000000000 0.0000000000000000 3.3251750820612109 3.6732492419243892 1.3485297433045640 1.1611358316462874 955.45011088685771 954.44155331390562 1.1612617198649586 
-105.39465008564541 -195.55289961676857 86.947404603924269 -105.39465008564540 -195.55289961676860 86.947404603924269 -230.49326632208420 -1.7840202863976234e-06 -1.1750072003053406e-06 -1.4813729336642590e-05 -243.50523740801219 6.6310334445596206e-09 1.2549696837282911e-09 3.2175277944190839e-05 0.00093018889585952012 2.5351790240448806e-12 -9.4527732514353605e-12 -9.8871586768014557e-13 0.00092282751217127976 -102.57235039900000 -193.43991653999998 98.563992549999980 2518.6337191607704 0.0000000000000000 0.0000000000000000 0.0000000000000000 0.0000000000000000 3.3255205784563020 3.6740881229495348 1.3490293004837766 1.1611358316462874 1055.7213228716323 1056.0682426063449 1.1614780990925424 
-84.132026819190401 -163.37836742457142 69.645537811686182 -84.132026819190344 -163.37836742457145 69.645537811686168 -233.40371342927432 -1.5219222069780817e-05 -2.0867879459947957e-05 -2.4256963826184082e-05 -230.38256866974035 5.4146295780377329e-09 9.0166696331550621e-10 3.6998813371269534e-05 0.00093983030873413798 2.7249852567442932e-11 5.0884082161890640e-11 1.2348568054882218e-10 0.0011530031117797416 -81.827457560199960 -161.86023086400007 83.003618824599982 2109.0980859678357 0.0000000000000000 0.0000000000000000 0.0000000000000000 0.0000000000000000 3.3260261923656169 3.6750995782511398 1.3495341166080488 1.1611358316462870 1060.0662318828583 1061.2270267847864 1.1616958495351073 
-28.663127612410445 -125.64413877470176 122.66131278928030 -28.663127612410445 -125.64413877470177 122.66131278928025 -58.026726140720811 -4.5524894909211541e-06 -4.6485546683141655e-06 3.1866439893265785e-05 -1.4546038494859925e-19 2.2412957600970174e-09 4.8732995416855829e-10 2.2218704856413751e-05 0.00054392798892418249 3.4716598707078380e-11 1.9694738649482665e-11 -6.6867968536624673e-11 1.0376184102433261e-20 -27.709188355560290 -124.82363704902639 130.68317166702266 1064.0748165315658 0.0000000000000000 0.0000000000000000 0.0000000000000000 0.0000000000000000 3.3245623696827815 3.6718645581256308 1.3477528704000441 1.1614518784561210 734.61023663962635 735.72621045736616 1.1609267195021549 