# For a description of the Tecplot format see the Tecplot User's guide.
#
Variables=x,y,z,s_u,s_v,s_w,s_p,mono_f_vel_u,mono_f_vel_v,mono_f_vel_w,const,u_nu,v_nu,w_nu,p_nu,x_nu,y_nu,z_nu,const,u_ref,v_ref,w_ref,vol_ref,x_ref,y_ref,z_ref,const,I1,I2,I3,J,p1,p2,p3
Zone f=fepoint, n=3174, e=16683, et=brick, c=black
-25.4568 -155.022 106.121 -25.456817080971696 -155.02224872680929 106.12142180160670 -314.52591056821365 -3.2221881191574640e-05 -0.00012571656964541986 -0.00013243254022067902 -299.34963225154854 8.4932061383824475e-15 3.9968028886505628e-15 2.0369519404539460e-09 -0.0048482364821757495 2.2138282364334455e-11 7.2472455217734731e-11 7.7176305777224414e-11 -0.0048145010707297854 -24.903554063199991 -154.16086777200002 112.24023381839994 89.724962256112903 0.0000000000000000 0.0000000000000000 0.0000000000000000 0.0000000000000000 3.2037525955091279 3.4143766376495601 1.2105540172198905 1.1025489586176274 938.80845746242403 938.80881718876321 1.1001448983022910 
-38.240664305099607 -156.38830572904988 108.85138523562368 -38.240664305099600 -156.38830572904993 108.85138523562365 -258.24243433560758 0.00010268101767415485 -0.00010039370019302884 -6.6037033886085091e-05 0.0000000000000000 2.1709174831407578e-07 3.1251772395401691e-07 -2.8720833623752354e-07 -0.0050325099779754898 -4.8609134987464289e-10 3.8774975725540387e-10 -1.3786522760678134e-10 0.0000000000000000 -37.438273663334591 -155.10473791080037 114.93291110338620 89.036758072416930 0.0000000000000000 0.0000000000000000 0.0000000000000000 0.0000000000000000 3.2729134210630764 3.5660526126833179 1.2934998904607660 1.1299140114836559 975.63543437621024 975.63598159499099 1.1374482746428176 
-32.199592108314341 -148.66622549186587 114.25999158316131 -32.199592108314363 -148.66622549186593 114.25999158316138 -219.79795244759470 3.1254740853411892e-05 -7.0889766915102840e-05 -2.6384327920501290e-05 0.0000000000000000 8.6042284408449632e-15 1.5765166949677223e-14 1.8646897359531067e-09 -0.0049080955453721020 -1.2242247844864089e-10 5.7545778366909774e-11 -3.6645724901369412e-11 0.0000000000000000 -31.542619574254449 -147.87907313389167 119.86135157363466 98.260374494724786 0.0000000000000000 0.0000000000000000 0.0000000000000000 0.0000000000000000 3.2299255862967340 3.4726335829494124 1.2428249620350942 1.1175476202446815 851.06680556867286 851.06291736762682 1.1146740003019149 
-29.259405788407673 -143.69649511990738 105.99785234985626 -29.259405788407665 -143.69649511990744 105.99785234985622 -218.86834303977272 3.4258028173196309e-05 -9.4590602070402798e-05 -5.7587223679596346e-05 0.0000000000000000 1.1546319456101630e-14 3.9968028886505635e-15 2.0395596322941856e-09 -0.0049796860554652250 -5.5804456030563126e-10 1.0359870511672537e-10 -1.1304171711453633e-10 0.0000000000000000 -28.647655777685479 -142.96738158566356 112.12452093910819 112.69127588814607 0.0000000000000000 0.0000000000000000 0.0000000000000000 0.0000000000000000 3.2407336259795154 3.4966719520241205 1.2561949578270488 1.1181260869181187 862.16257630364873 862.16275105420584 1.1208056824203076 
-24.805099249139261 -201.84030367725481 64.992765613712649 -24.805099249139261 -201.84030367725478 64.992765613712649 -951.07090644625669 6.2611502261027840e-06 6.2653952265532298e-07 3.9812850024860588e-06 -956.10061958776737 9.0483176506950258e-15 4.4408920985006254e-15 2.9074662677430747e-09 -0.0045498075716744243 -9.2908157447695110e-12 1.0683624263138341e-12 -2.9734334954049521e-12 -0.0045495069782697621 -24.261860196399997 -200.43215969199997 73.726546483199982 142.71380061529433 0.0000000000000000 0.0000000000000000 0.0000000000000000 0.0000000000000000 3.1959039485778820 3.4003492827972468 1.2045510426704782 1.0973947463904226 2055.9936455848401 2055.9936457359368 1.0975208991109529 
-24.699004997259877 -188.89605270738767 66.683605317232363 -24.699004997259873 -188.89605270738770 66.683605317232363 -935.02566626725707 2.2096699627363757e-05 -2.9456003916574642e-05 -9.3355152283307702e-06 -941.00562223310067 1.0436096431476473e-14 -1.3322676295501878e-15 2.8716726774291605e-09 -0.0045559900788372720 -8.3336985989601349e-12 3.5445786100343542e-12 -1.8110631540573821e-13 -0.0045595256243587123 -24.157397762799999 -187.63907770800003 75.309882232799993 165.73632395326644 0.0000000000000000 0.0000000000000000 0.0000000000000000 0.0000000000000000 3.1959424054526440 3.4003677337220886 1.2045289452741859 1.0973947463904237 2029.2075736189122 2029.2075738223380 1.0975081154651536 
-35.594734942065898 -196.76014445782300 73.397257673556140 -35.594734942065912 -196.76014445782309 73.397257673556112 -925.58338765750000 1.0309341260994138e-05 -2.3062361353263440e-05 -4.5128472065902670e-05 0.0000000000000000 1.2101430968414206e-14 -1.7763568394002505e-15 2.7295783411318553e-09 -0.0045560408440884484 -1.8173457425614510e-11 3.7981435553446704e-11 -6.0452867479691139e-11 0.0000000000000000 -34.885542273181727 -195.41132893576267 81.596679120775832 139.46796289390394 0.0000000000000000 0.0000000000000000 0.0000000000000000 0.0000000000000000 3.1941324925202523 3.3967107331729407 1.2026840886933219 1.0956058815166914 2009.4983191083588 2009.4983188384217 1.0966676942436524 
-19.280872793063974 -195.86809778765399 73.201059210590515 -19.280872793063967 -195.86809778765391 73.201059210590500 -943.43198342698895 1.1265721749989394e-05 -1.4825784236791605e-05 -2.1168669488134474e-05 0.0000000000000000 7.5495165674510645e-15 1.4654943925052066e-14 2.7337279107086938e-09 -0.0045454180737786350 4.1646050763310935e-12 4.6405779626871408e-12 -6.3592707704782304e-12 0.0000000000000000 -18.822600960987238 -194.52970000168264 81.412954998504986 111.95285379220412 0.0000000000000000 0.0000000000000000 0.0000000000000000 0.0000000000000000 3.1962746627401226 3.4010765375722518 1.2049071728093563 1.0973947463904243 2052.0836452899898 2052.0836448735558 1.0976847266315348 
-23.182260510386605 -103.46720653521186 32.434862138756458 -23.182260510386609 -103.46720653521186 32.434862138756451 -907.44410937840280 -2.9083171165194430e-05 3.4597380867281114e-05 -4.7267403627170945e-05 -917.38299790129793 8.9372953482325102e-15 3.3306690738754696e-15 3.5965737055221317e-09 -0.0039662421866765120 4.8503947445479228e-11 -8.0062208895601620e-11 1.0017760849267310e-10 -0.0039543945750664692 -22.663982073999996 -103.20790935200000 43.238681550399988 69.202643319072678 0.0000000000000000 0.0000000000000000 0.0000000000000000 0.0000000000000000 3.1955169459930906 3.3995323233713752 1.2041203308029569 1.0973947463904226 1981.9987050428977 1981.9750383573758 1.0973257790709139 
-30.786904910474700 -111.12179800816233 36.439555874728946 -30.786904910474693 -111.12179800816237 36.439555874728953 -882.33773634887973 2.0150488865017394e-06 5.3922843117623687e-05 -6.4043749150812928e-05 -874.89810117576042 1.0602629885170243e-14 1.9984014443252818e-15 3.5118166152869894e-09 -0.0040156100011686383 2.3541164923167355e-11 -1.2987333971872109e-10 1.1885869583339943e-10 -0.0040469132110163997 -30.151660686400003 -110.77310694400001 46.988755992800002 74.715282964229786 0.0000000000000000 0.0000000000000000 0.0000000000000000 0.0000000000000000 3.1964718206470373 3.4014742979552319 1.2051075399698146 1.0973947463904232 1934.0585492102803 1934.0616677193964 1.0977783401188115 
-19.192056070642924 -103.83058925570604 39.664245658797753 -19.192056070642927 -103.83058925570602 39.664245658797761 -863.79985923457514 -3.5660985962566373e-05 2.8172889603327829e-05 -6.7873532136997544e-05 -865.68021707868809 8.1046280797636427e-15 -2.2204460492503131e-16 3.4435601037330343e-09 -0.0040553437072483661 7.1287896178047157e-11 -7.5571305700647131e-11 1.3024359934832131e-10 -0.0040566060042577373 -18.735150314000002 -103.56704831999998 50.008419303199993 79.719497061372692 0.0000000000000000 0.0000000000000000 0.0000000000000000 0.0000000000000000 3.1955991931957430 3.3996951547621812 1.2042008100960773 1.0973947463904237 1903.9043035906227 1903.9102162284214 1.0973608791340479 
-26.054332537109705 -98.691108876788348 40.704183808582592 -26.054332537109719 -98.691108876788348 40.704183808582577 -876.49897521323260 1.6905343993540796e-06 1.2539025671250759e-05 -0.00010498745675546721 0.0000000000000000 9.6034291630076041e-15 5.1070259132757201e-15 3.4215528188497046e-09 -0.0040048072290768781 4.1042625069917271e-11 -7.1221152316334694e-11 1.6583517821828052e-10 0.0000000000000000 -25.491879232152165 -98.487589184379729 50.982237960580505 72.292163684038698 0.0000000000000000 0.0000000000000000 0.0000000000000000 0.0000000000000000 3.1954328023895489 3.3993976096454763 1.2040708204818247 1.0973947463904228 1923.5677229936193 1923.5364807198880 1.0972993590406157 
-25.975101190302183 -104.39535607400261 102.35597302027172 -25.975101190302201 -104.39535607400254 102.35597302027175 -208.37940117000875 3.0556902230650166e-05 0.00010133621171670541 -1.0420789003923096e-05 0.0000000000000000 2.2296633632428693e-08 -2.8766994391096603e-07 -2.3178050197582970e-07 -0.0045246203336408901 3.3847466859038750e-10 -3.5045707210080089e-11 -9.5274415324650114e-10 0.0000000000000000 -25.283559732051039 -104.23282252886388 108.75695162467670 96.378087069502698 0.0000000000000000 0.0000000000000000 0.0000000000000000 0.0000000000000000 3.2321816937370902 3.4760437491876099 1.2438621622373696 1.1209600274346514 812.40249937071587 812.40249861874952 1.1151401897685629 
-26.637801346717463 -118.33695577058559 104.35052927424951 -26.637801346717453 -118.33695577058555 104.35052927424944 -145.48243620972883 4.1677136526564028e-05 3.6124652818274359e-06 -3.5075203951209110e-05 0.0000000000000000 1.0805040421245180e-07 -6.2807285622422918e-07 -5.4231546887710683e-07 -0.0047323058092802652 3.0596887078013555e-10 -6.0475071085600172e-10 -8.6937184606588913e-10 0.0000000000000000 -25.913646985361510 -118.01095136745833 110.66456878241424 88.846747377876298 0.0000000000000000 0.0000000000000000 0.0000000000000000 0.0000000000000000 3.3018393600622562 3.6261559323531722 1.3247018655086651 1.1412884168441606 832.54110277742416 832.54110298527314 1.1511039314810467 
-37.317535681675842 -112.74249324980244 105.86406971399084 -37.317535681675828 -112.74249324980245 105.86406971399084 -150.64325019265141 -3.5099045494092235e-05 5.0517489245310630e-05 3.0638529573890525e-05 0.0000000000000000 4.8888957167437223e-08 -1.0721998337090615e-06 -5.5421006452830409e-07 -0.0045433760499578001 -2.6157594977904413e-10 -1.5197454571597574e-10 2.1381962982481902e-10 0.0000000000000000 -36.236867317722961 -112.72601430119678 112.03758904139967 95.996160021407249 0.0000000000000000 0.0000000000000000 0.0000000000000000 0.0000000000000000 3.3087518863003846 3.6414842013552722 1.3332142117376005 1.1488351049561831 856.40954535422497 856.40954990561988 1.1546691700750700 
-34.295481679461311 -105.02254245001518 98.862017131674520 -34.295481679461311 -105.02254245001511 98.862017131674449 -203.38902581520361 1.1563914685454259e-06 0.00011472427818939649 -1.4038343284432854e-05 0.0000000000000000 1.3470120774458219e-07 -7.9484035332890189e-07 -1.8144344862984994e-07 -0.0046276950546643384 2.4705795528860385e-10 -3.4363324593795368e-11 -7.5460670767534617e-10 0.0000000000000000 -33.380789828628046 -105.09637623893835 105.63342596379557 85.433794965156210 0.0000000000000000 0.0000000000000000 0.0000000000000000 0.0000000000000000 3.2812577805241849 3.5799937335619103 1.2989034100015433 1.1335926229205593 864.66599093696163 864.66599142228847 1.1396704188285123 
-114.13665538748118 -161.60169843394846 119.38901549389777 -114.13665538748116 -161.60169843394848 119.38901549389773 -545.42362573485525 5.6700764026519027e-06 -1.7773362608454823e-05 -4.2122612434254739e-05 -543.36333456055650 3.2307490016592055e-14 8.8817841970012523e-15 1.7561276877131604e-09 -0.0044647486305004107 7.1124847867092028e-12 -2.2543097314394221e-11 -6.1564975098532399e-11 -0.0044602034900512863 -112.21942232800005 -160.66347960400000 124.66427103520003 147.55923210393107 0.0000000000000000 0.0000000000000000 0.0000000000000000 0.0000000000000000 3.2097497281288274 3.4308545757716824 1.2212793013824876 1.0973947463904217 1377.3070227346182 1377.3070663585352 1.1052743936621812 
-101.25166866413014 -159.00255376857811 110.76101552254632 -101.25166866413018 -159.00255376857817 110.76101552254627 -565.13847760887097 -3.8771739995079575e-05 -3.0224639833838819e-05 -7.8849268250061382e-05 0.0000000000000000 3.2085445411667024e-14 -3.1086244689504383e-15 1.9387442762308642e-09 -0.0045284966353979867 3.8819197044840443e-11 -7.7689809753304474e-12 -4.3141609413907508e-11 0.0000000000000000 -99.532617471171264 -158.09468895943013 116.58484116745363 117.70414803503969 0.0000000000000000 0.0000000000000000 0.0000000000000000 0.0000000000000000 3.1630695235205484 3.3241468175028506 1.1608428632672905 1.0809392610996069 1314.5048527049942 1314.5046316582154 1.0772856167736256 
-106.13675038606989 -149.65366393618771 115.36036248028719 -106.13675038606986 -149.65366393618763 115.36036248028721 -526.76135664238313 -3.2440498247875447e-05 -3.4447345434925378e-05 -3.5734459497746622e-05 0.0000000000000000 2.2537527399890681e-14 -1.0214051826551440e-14 1.8413892632906936e-09 -0.0044721421140843246 3.9937391768854453e-11 -3.5816522717536776e-11 -5.7429946532382002e-11 0.0000000000000000 -104.34256255272837 -148.85497981259945 120.89176065121424 119.29379793442074 0.0000000000000000 0.0000000000000000 0.0000000000000000 0.0000000000000000 3.1636471179938415 3.3290152394021488 1.1653329339974234 1.0824193077142277 1252.2301831544330 1252.2317139457964 1.0793315785395494 
-102.26504750134218 -163.24041119787202 119.28601083400991 -102.26504750134215 -163.24041119787208 119.28601083400996 -538.64930289410609 -2.0705675026418645e-05 -4.5848494177274235e-05 -3.8443129919642391e-05 0.0000000000000000 3.2751579226442118e-14 3.1086244689504383e-15 1.7583090539119439e-09 -0.0044861398100928870 3.9060802115689697e-11 -2.6189764607569771e-11 -7.7037738416668232e-11 0.0000000000000000 -100.53040969477119 -162.28305471776312 124.56781543385799 141.51484144144280 0.0000000000000000 0.0000000000000000 0.0000000000000000 0.0000000000000000 3.1671629842727493 3.3383496677496578 1.1711761911072351 1.0835803179856678 1280.1839154863490 1280.1837379150500 1.0820928927269649 
-79.789472245123605 -149.59544217072028 81.781905170231056 -79.789472245123619 -149.59544217072022 81.781905170231070 -588.80850798467156 -9.4289340713595159e-05 -6.8361326858865811e-05 -3.3035561194258549e-05 -590.04775549070939 2.8088642523016464e-14 -8.8817841970012539e-15 2.5521060820210550e-09 -0.0045830821227116469 8.9568813229491865e-11 3.9119684302151469e-11 2.8158910880988579e-11 -0.0046007777095284849 -78.400527573600002 -148.79743798799998 89.448228916799977 108.06316173413846 0.0000000000000000 0.0000000000000000 0.0000000000000000 0.0000000000000000 3.2091797104137592 3.4281576450567992 1.2191293608025104 1.0973947463904232 1454.7919954903555 1454.7694084910677 1.1042785053870363 
-81.565626700557289 -163.49497369540461 79.992943395403003 -81.565626700557260 -163.49497369540455 79.992943395403003 -736.66462275096205 -5.3790198818330924e-05 -0.00011274237661656118 -6.1323112076705158e-05 -742.10179043888570 2.7422508708241363e-14 -2.2204460492503131e-16 2.5899762334802290e-09 -0.0045111072977713799 -7.6410869694173447e-13 6.1263903428832842e-11 2.2756937257300078e-11 -0.0044931301433476286 -80.149363288800018 -162.53464431600008 87.773009718400019 109.57810873427631 0.0000000000000000 0.0000000000000000 0.0000000000000000 0.0000000000000000 3.2109011927984246 3.4310586704887553 1.2202741846674183 1.0973947463904239 1714.9104333892838 1714.9324583937259 1.1048385404906917 
-85.776508912925138 -161.11699157438272 87.682000836328697 -85.776508912925195 -161.11699157438269 87.682000836328683 -668.68639735429258 -3.7610858921015903e-05 -7.6915621858706190e-05 -0.00011286987084148857 0.0000000000000000 2.6090241078691182e-14 1.1990408665951691e-14 2.4272299725680568e-09 -0.0045347184042111958 8.7852912251159822e-11 -1.4719388124596022e-13 5.5098113699873631e-11 0.0000000000000000 -84.295478612813938 -160.18443337667750 94.973195224810283 106.11323630727971 0.0000000000000000 0.0000000000000000 0.0000000000000000 0.0000000000000000 3.1592938511297413 3.3249282259464641 1.1656872219224963 1.0826095329501801 1486.2840479887113 1486.2886102591372 1.0794172278719865 
-87.989072053522563 -152.21878997500434 85.184498773805828 -87.989072053522534 -152.21878997500428 85.184498773805856 -640.73774893419238 -4.3774117624579434e-05 -0.00010009096404911919 -0.00010777299012538925 0.0000000000000000 3.0087043967341742e-14 3.5527136788005009e-15 2.4800907993949295e-09 -0.0045463124270202120 3.4650923134229061e-11 4.5121116546681715e-11 2.3773314954876784e-11 0.0000000000000000 -86.474010682800568 -151.39014911596544 92.634484883397832 94.367740677547317 0.0000000000000000 0.0000000000000000 0.0000000000000000 0.0000000000000000 3.1777162651080757 3.3632251628522467 1.1856160267841096 1.0860081126651995 1468.2219147901631 1468.2066396290838 1.0888622140397513 
-26.589338676601059 -133.03550463877960 134.31859489701458 -26.589338676601070 -133.03550463877963 134.31859489701452 -304.97372601169042 3.0814074302671580e-05 -2.6227740496100718e-05 0.00012036055902269256 -324.29100749637342 1.0602629885170247e-14 9.9920072216264104e-15 1.4401173586975349e-09 -0.0043868193994809632 -1.1813811601173223e-10 3.0910210831464340e-11 -1.3026110087057457e-10 -0.0043248652631236572 -26.018656529999991 -132.43089511199997 138.64462455200004 49.421240865332216 0.0000000000000000 0.0000000000000000 0.0000000000000000 0.0000000000000000 3.1935422713317441 3.3950432653951075 1.2016093204255296 1.1032678777465981 927.14175320578954 927.14112766352571 1.0962565134929001 
-33.167303661063016 -134.57945380353485 133.20619380294579 -33.167303661062995 -134.57945380353479 133.20619380294573 -288.05306378231211 -2.2862430326640108e-06 2.2172546013783426e-05 6.4721793987824712e-05 -228.29190963678894 1.0991207943789048e-14 -2.6645352591003757e-15 1.4636754031016608e-09 -0.0044736844706225933 -8.5201454338722861e-11 -1.2066947022673553e-10 -3.0678810662584424e-10 -0.0044622185245429416 -32.495446914399992 -133.95681332000001 137.60295016000006 48.530522504776933 0.0000000000000000 0.0000000000000000 0.0000000000000000 0.0000000000000000 3.2402686860221905 3.4950241743050028 1.2549768057061221 1.1196513695482473 987.61180367426994 987.60944190393002 1.1201319978714253 
-29.026369575367855 -137.09074562595691 136.09707077804811 -29.026369575367866 -137.09074562595694 136.09707077804813 -305.89368045213484 3.4521427710220618e-05 2.7817241671956544e-05 3.8348942092221474e-05 -322.67684430800182 8.5487172896137054e-15 -1.0214051826551439e-14 1.4024745809138039e-09 -0.0043948015401805785 -1.1091561215418409e-10 1.2764839429861902e-11 -1.5861193071913705e-10 -0.0043479094430900408 -28.418203856399998 -136.43877710800004 140.31002455199999 44.353383947079159 0.0000000000000000 0.0000000000000000 0.0000000000000000 0.0000000000000000 3.2029176432026700 3.4142711457236525 1.2114388049637967 1.1077750548678393 948.49915544744715 948.50592143073982 1.1006241734788840 
-27.350758917706120 -130.07173436306255 139.87562167575481 -27.350758917706120 -130.07173436306263 139.87562167575473 -331.66207538745272 1.7236851770493126e-05 2.0872858642735553e-05 2.1787826601679245e-05 0.0000000000000000 7.8825834748386130e-15 1.2212453270876722e-14 1.3225012196471653e-09 -0.0043375047499088458 -4.0491066866705773e-11 -1.2310693166874645e-11 -7.7296876192683995e-11 0.0000000000000000 -26.768365491316434 -129.50173712462359 143.84833436668455 49.139845408488213 0.0000000000000000 0.0000000000000000 0.0000000000000000 0.0000000000000000 3.2077053420844095 3.4264264256583350 1.2188751615146816 1.1083320160063883 1012.3223502816510 1012.3228158191631 1.1039893499133375 
-40.858922194423577 -65.289511289815422 150.66677202968606 -40.858922194423585 -65.289511289815422 150.66677202968600 -490.33968762226925 -1.4144429700128809e-05 -1.1995148644600236e-06 2.6816471097312333e-05 -494.89241081546680 1.4432899320127035e-14 -3.5527136788005009e-15 1.0941150208054751e-09 -0.0042442566742838216 5.7884973978935518e-12 2.0439554651951987e-12 -1.3815735324281855e-11 -0.0042402505173484229 -40.068761925200000 -65.476070995999990 153.95338104800004 156.95717166164070 0.0000000000000000 0.0000000000000000 0.0000000000000000 0.0000000000000000 3.1913349115502481 3.3911798833474474 1.1999653535323704 1.0946718904396064 1245.8149793266471 1245.8152838366125 1.0954380852093257 
-53.409963684509322 -59.400441263021364 145.65879736580143 -53.409963684509314 -59.400441263021357 145.65879736580149 -498.25947819477472 -1.6634242102547422e-05 -3.3497283023770832e-06 1.9440861858764393e-05 -500.64630204382019 1.4432899320127035e-14 -3.5527136788005009e-15 1.2001084570556484e-09 -0.0042476277184590504 4.3581764986983553e-12 8.3269085765681390e-12 -2.6022143305589299e-11 -0.0042464105974875941 -52.426757905599978 -59.655776269200025 149.26381449600007 118.05125250056595 0.0000000000000000 0.0000000000000000 0.0000000000000000 0.0000000000000000 3.1996230409679827 3.4086890104593102 1.2091961220067007 1.0950427584511651 1275.7914355161172 1275.7901626806556 1.0996568817431460 
-35.886599045162548 -65.849753227447181 141.10504544193276 -35.886599045162548 -65.849753227447181 141.10504544193279 -474.71403598545481 -3.6086517073020466e-06 2.0196866829694869e-06 4.7290167847864842e-07 -474.46095732881236 1.3766765505351941e-14 -2.2204460492503131e-16 1.2964775919499516e-09 -0.0042565493672510925 -1.5907280313826867e-12 5.9717366484816194e-12 -2.2296583537573922e-11 -0.0042522850409645934 -35.172917262399999 -66.029770167599992 144.99959110400002 155.12084301790807 0.0000000000000000 0.0000000000000000 0.0000000000000000 0.0000000000000000 3.1975310201618408 3.4034243955992944 1.2059971105934808 1.0968664365348932 1231.6717206676599 1231.6715831221441 1.0981817765541708 
-51.364574224006155 -66.416732698358302 138.11907637758492 -51.364574224006141 -66.416732698358317 138.11907637758489 -484.62334592949105 -1.6040958433148305e-05 1.0289265499808873e-05 1.1312945463503306e-05 0.0000000000000000 1.7763568394002508e-14 -3.7747582837255322e-15 1.3596839210094911e-09 -0.0042604764019476627 -1.7455659877126730e-13 5.4051092955301791e-12 -2.4469496215161339e-11 0.0000000000000000 -50.412828244765279 -66.590128188430739 142.20347059834828 136.07757377940416 0.0000000000000000 0.0000000000000000 0.0000000000000000 0.0000000000000000 3.1776642996239572 3.3602821164466992 1.1826114480857586 1.0897342480130738 1207.6335453483771 1207.6337283375326 1.0874473965954150 
-96.201087878636130 -159.63196653631937 69.157906329768466 -96.201087878636130 -159.63196653631937 69.157906329768466 -874.31853617685351 -2.2512759717702153e-05 -3.3417914194193581e-05 -4.7683959534888249e-05 -875.08205191231366 3.1641356201816961e-14 -4.8849813083506896e-15 2.8193056778036407e-09 -0.0044705966613645407 9.9678498633761859e-12 -9.4969142404632031e-13 1.2512211195453989e-11 -0.0044674732182702287 -94.559718839999974 -158.71675115199997 77.626866652000004 109.98746742214213 0.0000000000000000 0.0000000000000000 0.0000000000000000 0.0000000000000000 3.1948149903188705 3.3980938007147210 1.2033842923386280 1.0973947463904232 1921.7580244484805 1921.7429435895899 1.0969826328725178 
-91.247315352261793 -159.37866237647671 74.296079655951800 -91.247315352261765 -159.37866237647674 74.296079655951800 -809.40017462652861 -8.1642357601706739e-05 -7.6586264257961801e-05 -9.7258388489561575e-05 -788.80085507786873 2.9864999362416711e-14 7.5495165674510645e-15 2.7105535593818786e-09 -0.0044845469683086094 2.3940302761250705e-11 1.5700526178046770e-11 2.4502859472652742e-11 -0.0044932035684999583 -89.682139475999989 -158.46640519600001 82.438353807199988 112.88451412247700 0.0000000000000000 0.0000000000000000 0.0000000000000000 0.0000000000000000 3.1971694834153253 3.4025126746903429 1.2054390760460418 1.0973947463904243 1804.2855072385316 1804.2049703434202 1.0978991689438742 
-104.47854991977738 -155.81467390947887 78.749885827946727 -104.47854991977738 -155.81467390947898 78.749885827946699 -798.49486018014170 -1.9190061366319667e-05 -1.8423667019845271e-05 -0.00010868717561228655 0.0000000000000000 2.4980018054066022e-14 -7.3274719625260332e-15 2.6162858546285861e-09 -0.0044793574486350447 8.5293475304771918e-12 -1.1882779435631154e-11 2.9099298392783234e-11 0.0000000000000000 -102.70986659571734 -154.94403864466588 86.608986019839278 111.02505284862640 0.0000000000000000 0.0000000000000000 0.0000000000000000 0.0000000000000000 3.1989859445134115 3.4068718949920922 1.2079940030824363 1.0948860992474496 1804.6501537155641 1804.5353286402310 1.0991374534333185 
-102.13977569833955 -168.18906241051019 75.611431340044206 -102.13977569833956 -168.18906241051019 75.611431340044220 -849.52329963982868 -1.0525282041963621e-05 -2.3483596233342173e-05 -0.00010450271823301494 0.0000000000000000 2.1871393585115581e-14 -3.9968028886505635e-15 2.6827109422811191e-09 -0.0044768871064476022 3.6245702123004409e-13 -5.0923681178907233e-12 -5.7745442506792415e-12 0.0000000000000000 -100.40706467681501 -167.17391327890167 83.670075146830683 105.53983917324770 0.0000000000000000 0.0000000000000000 0.0000000000000000 0.0000000000000000 3.1952660442482155 3.3990488206324838 1.2038882352631364 1.0953615166645958 1874.1783271598672 1874.2060318906899 1.0972244302616607 
-116.57885842770708 -100.02494831804751 89.389641649203440 -116.57885842770703 -100.02494831804754 89.389641649203440 -655.35853254038534 -1.8162811767719454e-05 -2.6060502990817618e-05 -7.7915368549108985e-05 -664.44995289571102 3.2299430774490441e-14 -1.3322676295501880e-15 2.3910864399567795e-09 -0.0043900688544736954 -5.3397340188376089e-12 -2.0800322236964017e-11 3.5160524462779788e-12 -0.0043906261962126320 -114.62406224400000 -99.805851428000011 96.572263865600007 85.211636250682801 0.0000000000000000 0.0000000000000000 0.0000000000000000 0.0000000000000000 3.2011149996745334 3.4098750581190393 1.2087485675502965 1.0882927718257485 1549.3403922652456 1549.0293969046411 1.0993835250050006 
-112.98711427221296 -91.213838624785069 93.286403240907774 -112.98711427221293 -91.213838624785041 93.286403240907774 -615.48481842416766 -7.8593860342742731e-06 -1.2682771085170886e-06 -8.4292020635190658e-05 -610.05441009200774 3.6526337510167650e-14 4.8849813083506888e-15 2.3086119682602657e-09 -0.0043805006957087275 -2.2686807939087010e-12 -1.2178030582107013e-11 2.3542037049894766e-11 -0.0043827697133968987 -111.08756211600000 -91.097641973600034 100.22126851279998 99.535403830130534 0.0000000000000000 0.0000000000000000 0.0000000000000000 0.0000000000000000 3.2136906740395905 3.4379598662785038 1.2244425737092077 1.0938616059298365 1504.2341156901493 1504.2974733807862 1.1066543828195050 
-114.83228040574348 -97.849495831659809 102.00636296636085 -114.83228040574345 -97.849495831659837 102.00636296636087 -560.72220089846383 -7.9347939628917924e-06 -5.7837960522937570e-06 -7.5527467695998585e-05 -559.94369775138955 2.4091839634365897e-14 3.9968028886505643e-15 2.1240413872192221e-09 -0.0043821097716440580 -1.4427005145805342e-11 -3.6576087844652529e-11 -2.7741978749271670e-11 -0.0043846144665424785 -112.90434805199999 -97.655804887999992 108.38681131359999 128.09762094244454 0.0000000000000000 0.0000000000000000 0.0000000000000000 0.0000000000000000 3.1989480949187761 3.4079142964926059 1.2091038480442353 1.0939527690802666 1387.6056369917071 1387.6495002084991 1.0995983745399234 
-108.99278229111593 -104.10798176169754 93.637630866392442 -108.99278229111589 -104.10798176169752 93.637630866392513 -606.41704312021284 -8.6690641095373916e-05 -8.3246416286019648e-06 -8.9344777562275760e-05 0.0000000000000000 3.0975222387041867e-14 -6.6613381477509383e-16 2.3011743621736969e-09 -0.0044101252621547926 4.1826674961456918e-11 -3.0439639889262016e-11 -1.0113845663072491e-11 0.0000000000000000 -107.15466629968294 -103.84120130723400 100.55016500991876 102.24201981555134 0.0000000000000000 0.0000000000000000 0.0000000000000000 0.0000000000000000 3.1674531896153111 3.3354588489388277 1.1678888218528767 1.0802931778266469 1391.4659535457329 1391.4328684585153 1.0805652305699061 
-27.556368625766126 -115.65879711870770 96.408811868845007 -27.556368625766137 -115.65879711870774 96.408811868845049 -181.03170989582810 6.5494731272926904e-05 2.6643740670361444e-05 -8.8729657240883350e-05 0.0000000000000000 1.0298259272700689e-07 -6.8825503740147466e-07 -2.6470801034992315e-07 -0.0050238799882022138 -1.9727674111439095e-10 -6.3444769222016524e-10 -8.3219222311301923e-10 0.0000000000000000 -26.889884864405381 -115.37486796036181 103.37575244326078 96.382960025775517 0.0000000000000000 0.0000000000000000 0.0000000000000000 0.0000000000000000 3.2687819003731184 3.5553991497996438 1.2868697027048988 1.1337800891960650 828.97770800285411 828.97770979279710 1.1343731724194368 
-111.44415431021849 -103.88596095618909 148.79161819975957 -111.44415431021845 -103.88596095618912 148.79161819975954 -505.03046479171559 1.6742471604756327e-06 5.6791996725928446e-06 5.1379496517018375e-07 -507.35552033075851 2.5646151868841116e-14 -1.9984014443252818e-15 1.1338059380250343e-09 -0.0042372502663357370 -6.4501331841216061e-12 -9.8387152310558547e-12 -1.8354533502421943e-11 -0.0042332645914154813 -109.56833416800004 -103.62177336400003 152.19744990400002 70.302883591683823 0.0000000000000000 0.0000000000000000 0.0000000000000000 0.0000000000000000 3.1884844897044813 3.3838979177602870 1.1954782533026402 1.0936036058835952 1265.5176113625860 1265.5110856241870 1.0933955397244366 