# For a description of the Tecplot format see the Tecplot User's guide.
#
Variables=x,y,z,s_u,s_v,s_w,s_p,mono_f_vel_u,mono_f_vel_v,mono_f_vel_w,const,u_nu,v_nu,w_nu,p_nu,x_nu,y_nu,z_nu,const,u_ref,v_ref,w_ref,vol_ref,x_ref,y_ref,z_ref,const,I1,I2,I3,J,p1,p2,p3
Zone f=fepoint, n=3174, e=16683, et=brick, c=black
-25.2876 -154.760 108.058 -25.287632741284199 -154.75952965719716 108.05833813868907 -251.77166149443909 -2.2622107386969401e-05 -9.0874535751680823e-05 -9.5133412903182225e-05 -242.04949271783940 5.3526072463228047e-12 2.0992096949612460e-12 7.0097433635396569e-08 -0.013680455972329699 9.0339933906601857e-11 4.6812473973171271e-10 -1.0674425888542103e-10 -0.013574003533027151 -24.903554063199991 -154.16086777200002 112.24023381839994 89.724962256112903 0.0000000000000000 0.0000000000000000 0.0000000000000000 0.0000000000000000 3.1383170153145552 3.2798074378397093 1.1414655519187300 1.0702129330023933 709.29118818664381 701.16327814263582 1.0683454390155238 
-38.000835412685227 -156.00139136507678 110.77748930042311 -38.000835412685220 -156.00139136507681 110.77748930042310 -210.57644608805373 7.3632553859570378e-05 -7.5603703092520688e-05 -4.8357805870237462e-05 0.0000000000000000 1.8047417659635401e-08 6.2965685066047939e-07 -1.0453216959436644e-06 -0.014137864810140632 -1.1771372164336258e-09 1.0456250060374040e-09 -7.3389854502698206e-10 0.0000000000000000 -37.438273663334591 -155.10473791080037 114.93291110338620 89.036758072416930 0.0000000000000000 0.0000000000000000 0.0000000000000000 0.0000000000000000 3.1881444060426571 3.3859763782108097 1.1979524946788704 1.0894147092862176 736.88817809110185 736.69887975268398 1.0945738224393045 
-31.998694052963724 -148.42614596146134 116.03310794065855 -31.998694052963735 -148.42614596146137 116.03310794065861 -182.40614620377229 2.3197859894482339e-05 -5.4018283504216932e-05 -1.6983718479651567e-05 0.0000000000000000 6.3560823271302516e-12 1.9326762412674725e-12 6.4169471514219354e-08 -0.013858967954167569 -2.4682163966999241e-10 3.8616094336967292e-11 1.4233576274872242e-10 0.0000000000000000 -31.542619574254449 -147.87907313389167 119.86135157363466 98.260374494724786 0.0000000000000000 0.0000000000000000 0.0000000000000000 0.0000000000000000 3.1577763498807809 3.3216388910641830 1.1639007569061688 1.0808811992604224 645.75109800770986 641.12454530826619 1.0787677907510795 
-29.072336495334898 -143.47411728778945 107.93725569315922 -29.072336495334895 -143.47411728778937 107.93725569315924 -180.98469110523988 2.6345949087514809e-05 -6.9506729180783444e-05 -4.4766176008982757e-05 0.0000000000000000 5.9174887212520852e-12 1.7787993300544256e-12 7.0187430978307930e-08 -0.014025648375195961 -1.4614565184734242e-09 3.8725248817936024e-11 -3.5908757927136480e-10 0.0000000000000000 -28.647655777685479 -142.96738158566356 112.12452093910819 112.69127588814607 0.0000000000000000 0.0000000000000000 0.0000000000000000 0.0000000000000000 3.1655920840042833 3.3384882173882020 1.1729828184115150 1.0812692495777239 652.72908884586275 654.27875054018693 1.0830443677306005 
-24.638980174706415 -201.41082323004898 67.757453073333693 -24.638980174706411 -201.41082323004895 67.757453073333693 -699.90871470676257 3.8864588471444838e-06 3.0310174951182215e-07 2.5941969716147390e-06 -703.37321854297909 5.2567949992976537e-12 3.4559022310531865e-12 1.0005465256313074e-07 -0.013347964670436382 6.4669386708173951e-12 1.2827882762996213e-12 1.2502744875532898e-12 -0.013348276131181737 -24.261860196399997 -200.43215969199997 73.726546483199982 142.71380061529433 0.0000000000000000 0.0000000000000000 0.0000000000000000 0.0000000000000000 3.1334245925605799 3.2708615126520373 1.1374712696883071 1.0664384653581338 1495.8783627709033 1495.8782721755824 1.0665232317309157 
-24.533384922559922 -188.51267842853798 69.414262287915918 -24.533384922559922 -188.51267842853801 69.414262287915918 -688.69850534914076 1.4851833587026175e-05 -2.0245857116025083e-05 -6.3354440895754171e-06 -692.67728417220849 5.2380322301814886e-12 3.0699887076934837e-12 9.8823077721021972e-08 -0.013352383091991795 3.3986176153055524e-12 5.0334015705334921e-12 2.8442587015926477e-12 -0.013354063179164970 -24.157397762799999 -187.63907770800003 75.309882232799993 165.73632395326644 0.0000000000000000 0.0000000000000000 0.0000000000000000 0.0000000000000000 3.1334411136397371 3.2708673719498451 1.1374599363061439 1.0664384653581329 1477.1634282931388 1477.1634755457142 1.0665166292468371 
-35.377868299000482 -196.34875904576384 75.992793099739416 -35.377868299000504 -196.34875904576373 75.992793099739458 -682.46241744007932 6.5039318573819046e-06 -1.5833513501943409e-05 -3.1494433851709658e-05 0.0000000000000000 6.8577366008071311e-12 3.2913671788037391e-12 9.3932992939471647e-08 -0.013345374562879299 5.4455192330851472e-12 1.3331148232282678e-11 -3.2853019206680128e-12 0.0000000000000000 -34.885542273181727 -195.41132893576267 81.596679120775832 139.46796289390394 0.0000000000000000 0.0000000000000000 0.0000000000000000 0.0000000000000000 3.1322384639061069 3.2684459296042081 1.1362418618271659 1.0652278248633549 1464.0481468201053 1464.0481707900817 1.0659454941581525 
-19.140736158557743 -195.45988975944283 75.800543402354350 -19.140736158557733 -195.45988975944269 75.800543402354364 -694.40959953398419 7.5250267437838927e-06 -1.0057430299635791e-05 -1.4733085505875788e-05 0.0000000000000000 4.4341752492016432e-12 3.2729374765949615e-12 9.4075911505342433e-08 -0.013353785280248116 3.9490728568861714e-12 4.7534309463148462e-12 1.9082021234365045e-12 0.0000000000000000 -18.822600960987238 -194.52970000168264 81.412954998504986 111.95285379220412 0.0000000000000000 0.0000000000000000 0.0000000000000000 0.0000000000000000 3.1336703795538949 3.2713467167465535 1.1377105534896970 1.0664384653581325 1492.8931059885531 1492.8932430850325 1.0666361557452213 
-23.023774234930318 -103.38812153298825 35.854822461751652 -23.023774234930322 -103.38812153298827 35.854822461751660 -676.23773543049322 -2.0859002401832315e-05 2.4306403247711241e-05 -3.3139374585220598e-05 -683.02224513985789 5.0139614682365163e-12 6.3549165929543950e-13 1.2376911584510708e-07 -0.013172686713445415 6.1729425170661478e-13 -1.3461201728090242e-12 1.5511962539108107e-12 -0.013172467208792824 -22.663982073999996 -103.20790935200000 43.238681550399988 69.202643319072678 0.0000000000000000 0.0000000000000000 0.0000000000000000 0.0000000000000000 3.1331616034927734 3.2703156537988898 1.1371881565423576 1.0664384653581329 1456.0605922928846 1453.3921891248124 1.0663910213344547 
-30.592651235209658 -111.01544809242839 39.778916194307897 -30.592651235209647 -111.01544809242840 39.778916194307897 -658.44450280848503 1.6747757326089247e-06 3.8227187734397003e-05 -4.4947684388559505e-05 -652.68554008497847 6.1471938650470284e-12 8.4754425699884460e-13 1.2085218692448052e-07 -0.013172246769914416 -1.8232574288246079e-12 -3.8966284045661909e-12 -3.9379236038762224e-12 -0.013184685310872283 -30.151660686400003 -110.77310694400001 46.988755992800002 74.715282964229786 0.0000000000000000 0.0000000000000000 0.0000000000000000 0.0000000000000000 3.1338167052475918 3.2716416384184370 1.1378590849344759 1.0664384653581316 1422.1504115163937 1420.9358402764553 1.0667069660424737 
-19.052337173384277 -103.75020991942418 42.938704633917425 -19.052337173384277 -103.75020991942417 42.938704633917432 -645.29254144660808 -2.5442700259206396e-05 1.9802071012149392e-05 -4.7781391166481139e-05 -646.53061105087022 4.4186598824325074e-12 6.4059868520871522e-13 1.1850339021179934e-07 -0.013174793875565582 -2.4595153399988990e-12 1.1056763457668948e-11 1.3910350642099370e-13 -0.013173143889171844 -18.735150314000002 -103.56704831999998 50.008419303199993 79.719497061372692 0.0000000000000000 0.0000000000000000 0.0000000000000000 0.0000000000000000 3.1332159148305254 3.2704235077242099 1.1372416656319015 1.0664384653581318 1400.7233760312881 1403.0667950749814 1.0664153358719035 
-25.882337865592433 -98.629035871878244 43.957712589297522 -25.882337865592447 -98.629035871878244 43.957712589297522 -654.57433134751705 9.4808631650421287e-07 9.0358396358175374e-06 -7.3888049937584715e-05 0.0000000000000000 5.4430349116785237e-12 5.0015547259363302e-13 1.1774592501012647e-07 -0.013178750137783626 3.3894825052284067e-12 6.1209438484410507e-12 1.4213302966941309e-11 0.0000000000000000 -25.491879232152165 -98.487589184379729 50.982237960580505 72.292163684038698 0.0000000000000000 0.0000000000000000 0.0000000000000000 0.0000000000000000 3.1331014588927371 3.2702106278013097 1.1371436073171672 1.0664384653581325 1415.1010692304667 1421.4409051775665 1.0663682856546659 
-25.768659389153715 -104.34019305532682 104.38039290827544 -25.768659389153722 -104.34019305532682 104.38039290827551 -175.28349145877672 2.2360482951727281e-05 7.4591639411305036e-05 -1.0247725899709171e-05 0.0000000000000000 -9.4623137174509295e-08 -4.0899936107875800e-07 -1.3452305844423541e-06 -0.013008695268342852 1.0201351954807170e-09 1.3343693234052040e-10 -3.4451132051140587e-09 0.0000000000000000 -25.283559732051039 -104.23282252886388 108.75695162467670 96.378087069502698 0.0000000000000000 0.0000000000000000 0.0000000000000000 0.0000000000000000 3.1590311836200740 3.3234990132917561 1.1644599241537352 1.0832296784933741 619.43929037445571 619.44026436489128 1.0790241620380598 
-26.422336993970365 -118.22925662889963 106.34710060267501 -26.422336993970365 -118.22925662889972 106.34710060267493 -126.52408946508393 3.2925280516596341e-05 4.7038270169311547e-06 -2.7231710400189718e-05 0.0000000000000000 1.3535941934597987e-07 -1.3320030007114194e-06 -2.1950925334364556e-06 -0.013306791908980403 1.0602720907639062e-09 -1.3922823279268601e-09 -2.4110605672835794e-09 0.0000000000000000 -25.913646985361510 -118.01095136745833 110.66456878241424 88.846747377876298 0.0000000000000000 0.0000000000000000 0.0000000000000000 0.0000000000000000 3.2097982006806416 3.4305500924074335 1.2208815575218666 1.0979560778616613 631.27924189976102 631.27022348576293 1.1050142406376253 
-37.000503647746385 -112.71960312647596 107.82039278844216 -37.000503647746406 -112.71960312647603 107.82039278844208 -130.27001523722072 -2.4029807165452695e-05 4.1413834973257763e-05 2.5747790180196915e-05 0.0000000000000000 -5.0100148871435609e-07 -1.7285383530548248e-06 -2.6469772283215945e-06 -0.012751970885951900 -7.1943463269029753e-10 -2.2681828834016391e-10 4.2982023396145854e-10 0.0000000000000000 -36.236867317722961 -112.72601430119678 112.03758904139967 95.996160021407249 0.0000000000000000 0.0000000000000000 0.0000000000000000 0.0000000000000000 3.2151222300800231 3.4419636207229867 1.2270054775550343 1.1034135825283993 649.13867266956618 649.13674316123206 1.1077141062993145 
-34.025954810550566 -105.02984610982371 100.99792773696240 -34.025954810550587 -105.02984610982368 100.99792773696241 -172.07327288301829 1.2449332641582587e-06 8.4940236396972401e-05 -1.4879027366902663e-05 0.0000000000000000 -8.6379681997723051e-08 -7.9611887946574283e-07 -2.0902063748118120e-06 -0.013260103748524772 9.9079209775795952e-10 3.3165881042083764e-10 -2.0221076637203206e-09 0.0000000000000000 -33.380789828628046 -105.09637623893835 105.63342596379557 85.433794965156210 0.0000000000000000 0.0000000000000000 0.0000000000000000 0.0000000000000000 3.1934424244647190 3.3951492800288081 1.2017553521071520 1.0920383130176403 658.56612646552344 658.56734843925960 1.0962329645929219 
-113.55037761583149 -161.31554400167263 121.05890314728364 -113.55037761583147 -161.31554400167263 121.05890314728366 -422.79058004534642 3.7971536570872149e-06 -1.1945123779292649e-05 -2.9564569464962050e-05 -421.31757402074953 1.8553936165233154e-11 2.3043789099119749e-12 6.0433599458065133e-08 -0.013083185762144066 1.4194133927821377e-11 -4.1774485693707194e-11 -1.6074761574311995e-10 -0.013067892601375196 -112.21942232800005 -160.66347960400000 124.66427103520003 147.55923210393107 0.0000000000000000 0.0000000000000000 0.0000000000000000 0.0000000000000000 3.1434653681068743 3.2923088124267941 1.1489005271791293 1.0664384653581325 1033.6542233526577 1033.6542368120170 1.0719479847863858 
-100.72599365671479 -158.72565723788364 112.60455361539518 -100.72599365671478 -158.72565723788372 112.60455361539518 -436.30911653073497 -2.6840798049104858e-05 -2.0450006130678043e-05 -5.6028232059199974e-05 0.0000000000000000 1.6625922860669107e-11 2.2279955658177641e-12 6.6718047975200547e-08 -0.013231444798738346 6.5921604537934550e-11 3.9702923358588143e-11 -1.0897963294334435e-10 0.0000000000000000 -99.532617471171264 -158.09468895943013 116.58484116745363 117.70414803503969 0.0000000000000000 0.0000000000000000 0.0000000000000000 0.0000000000000000 3.1089918387419000 3.2168677691665164 1.1077974420592513 1.0550308427870430 985.63162052100984 985.63162921024662 1.0524510930938673 
-105.58809906814552 -149.41006724567393 117.11133235070832 -105.58809906814547 -149.41006724567390 117.11133235070837 -409.94992024092477 -2.2824092434173770e-05 -2.3066231822405970e-05 -2.5769275371394266e-05 0.0000000000000000 1.7362888904415286e-11 1.9459989175629744e-12 6.3367991742779850e-08 -0.013116307672604906 1.2777569769266824e-10 -8.2298893920112716e-11 -1.5995495542268782e-10 0.0000000000000000 -104.34256255272837 -148.85497981259945 120.89176065121424 119.29379793442074 0.0000000000000000 0.0000000000000000 0.0000000000000000 0.0000000000000000 3.1100358012550426 3.2207766637768929 1.1107286493116566 1.0559882823660596 943.44776263713982 943.44775814755110 1.0538246609682593 
-101.73460620583744 -162.94841982943382 120.95797159872120 -101.73460620583741 -162.94841982943390 120.95797159872112 -417.62339160292061 -1.4719363837511947e-05 -3.1381972900535968e-05 -2.6910006160058322e-05 0.0000000000000000 1.6778023415042753e-11 2.3356871992064043e-12 6.0508630994604573e-08 -0.013127043472948234 9.8678408419954945e-11 -3.8140782221814442e-11 -1.7639417057352799e-10 0.0000000000000000 -100.53040969477119 -162.28305471776312 124.56781543385799 141.51484144144280 0.0000000000000000 0.0000000000000000 0.0000000000000000 0.0000000000000000 3.1127533533243690 3.2273185031369427 1.1145608827482048 1.0568075450774883 962.04028330869551 962.04025946748868 1.0556692618482340 
-79.364741728956758 -149.35205286049657 84.208687962272677 -79.364741728956773 -149.35205286049657 84.208687962272705 -451.04097424483837 -6.6271180837830079e-05 -4.7397507800843503e-05 -2.2857847898579207e-05 -451.59866138050489 1.3443912649790946e-11 1.9491075420319248e-12 8.7825803518626344e-08 -0.013457486330346166 1.6953485142517037e-10 3.8630498290753265e-11 3.9904490095957365e-11 -0.013523547281541445 -78.400527573600002 -148.79743798799998 89.448228916799977 108.06316173413846 0.0000000000000000 0.0000000000000000 0.0000000000000000 0.0000000000000000 3.1424632835175852 3.2895445931035279 1.1471308159460458 1.0664384653581314 1082.9460823954998 1082.9461619801809 1.0711061676836755 
-81.132542286011073 -163.20207560000355 82.455731518855458 -81.132542286011102 -163.20207560000352 82.455731518855458 -554.98630190304698 -3.8298742654353499e-05 -7.7665051647054603e-05 -4.2344119755067631e-05 -558.60515333613523 1.3695267142566083e-11 2.3538948568102569e-12 8.9128842972741040e-08 -0.013335744715006044 4.2771171125167551e-11 9.4422605931446774e-11 4.8657283426957169e-11 -0.013321317123558940 -80.149363288800018 -162.53464431600008 87.773009718400019 109.57810873427631 0.0000000000000000 0.0000000000000000 0.0000000000000000 0.0000000000000000 3.1436970566941205 3.2917553878641765 1.1480964525832438 1.0664384653581329 1266.4200575008788 1266.4200833310463 1.0715794249983703 
-85.323619192606088 -160.83256362099877 89.990036038118390 -85.323619192606159 -160.83256362099874 89.990036038118419 -507.48181844922755 -2.7357858626831194e-05 -5.3334938849345002e-05 -7.8517807152702783e-05 0.0000000000000000 1.4328982445022120e-11 2.2799540033702215e-12 8.3528302496915785e-08 -0.013365745417135986 7.6353142633160751e-11 2.1595895862962268e-11 1.4306931371835256e-11 0.0000000000000000 -84.295478612813938 -160.18443337667750 94.973195224810283 106.11323630727971 0.0000000000000000 0.0000000000000000 0.0000000000000000 0.0000000000000000 3.1082371577220065 3.2193957400029385 1.1111746309864292 1.0562955764177149 1105.5907901740941 1105.5907819411766 1.0540038458462426 
-87.525775846550317 -151.96605655396243 87.542799660824642 -87.525775846550289 -151.96605655396249 87.542799660824599 -488.17949246532680 -3.1332023278398832e-05 -6.9272551973921048e-05 -7.5442384916496843e-05 0.0000000000000000 1.4653389612817591e-11 2.0186075033734596e-12 8.5347432232651954e-08 -0.013430720315734097 -2.8673604763166817e-11 1.4047396020627844e-10 -7.4029663417500914e-12 0.0000000000000000 -86.474010682800568 -151.39014911596544 92.634484883397832 94.367740677547317 0.0000000000000000 0.0000000000000000 0.0000000000000000 0.0000000000000000 3.1211110568653075 3.2458657871690142 1.1247893704054202 1.0586236575882031 1093.6785183978247 1093.6785239164417 1.0605605132886320 
-26.414827677234047 -132.85110022228150 135.68800410429972 -26.414827677234047 -132.85110022228150 135.68800410429975 -246.45780411964532 2.2801067005118733e-05 -1.9488095083528460e-05 8.8966836184808110e-05 -260.89139011704395 5.5203619453436651e-12 1.4854784069484592e-12 4.9559234938101326e-08 -0.012723268648587763 -2.3078682851715458e-10 4.1522946157966653e-11 5.0189697102969979e-11 -0.012611521039030212 -26.018656529999991 -132.43089511199997 138.64462455200004 49.421240865332216 0.0000000000000000 0.0000000000000000 0.0000000000000000 0.0000000000000000 3.1317947619969884 3.2673453464422688 1.1355865823860347 1.0707152235373143 703.29619468846863 703.30069947924130 1.0656805953598825 
-32.961854107419285 -134.38954998963715 134.59799162166874 -32.961854107419292 -134.38954998963712 134.59799162166880 -234.20273289737278 -2.0950697659940003e-06 1.5440796505525755e-05 4.9681450763487077e-05 -191.99337628380485 6.5009664318438354e-12 1.5247803020201898e-12 5.0369457937904372e-08 -0.012931253614078771 -2.4557314232712044e-10 -3.4673721840904212e-10 -4.6328483385832269e-10 -0.012514575922728704 -32.495446914399992 -133.95681332000001 137.60295016000006 48.530522504776933 0.0000000000000000 0.0000000000000000 0.0000000000000000 0.0000000000000000 3.1653347144525679 3.3375353610557332 1.1722729075504146 1.0824344096793193 748.99231328050871 748.98851464211066 1.0826424482613934 
-28.840396336096308 -136.89189683379621 137.43068569704613 -28.840396336096315 -136.89189683379621 137.43068569704613 -247.82881492866048 2.6429091857099239e-05 1.8820938917534154e-05 2.8203999007301611e-05 -260.79335580970616 5.8847926531768735e-12 1.5942802633617250e-12 4.8263814278470818e-08 -0.012838630364174436 -1.4348003827558090e-10 -1.0151561119758621e-10 -3.1119763553692555e-10 -0.012796654318190106 -28.418203856399998 -136.43877710800004 140.31002455199999 44.353383947079159 0.0000000000000000 0.0000000000000000 0.0000000000000000 0.0000000000000000 3.1386811953642018 3.2813466668874720 1.1426931944820582 1.0740538686497438 721.16934901538650 721.15913742905821 1.0689484001646810 
-27.172666682879136 -129.89788660925737 141.13318802890922 -27.172666682879136 -129.89788660925740 141.13318802890916 -266.47976236520930 1.1789032939231514e-05 1.4445548600006180e-05 1.6814969018932785e-05 0.0000000000000000 5.6333271380992747e-12 1.3880008253863709e-12 4.5511598045777646e-08 -0.012695432850120657 -1.0592937794445905e-10 -6.4755513314970711e-11 -7.6823836741440515e-11 0.0000000000000000 -26.768365491316434 -129.50173712462359 143.84833436668455 49.139845408488213 0.0000000000000000 0.0000000000000000 0.0000000000000000 0.0000000000000000 3.1420218872787888 3.2892562173320248 1.1472846191845170 1.0743874736118626 766.72248950908806 766.72308964331751 1.0710928145759835 
-40.617296170088338 -65.346411540700089 151.70715154840684 -40.617296170088352 -65.346411540700075 151.70715154840678 -383.76644463784930 -1.0611326161656682e-05 -6.4410180763259353e-07 1.8908478323458518e-05 -387.02367943033613 7.6456063702323718e-12 -4.5241588253475129e-13 3.7651572526442578e-08 -0.012647797896267359 1.7218115768779530e-12 -3.5927720514583964e-12 1.2361118982398192e-11 -0.012641088883298344 -40.068761925200000 -65.476070995999990 153.95338104800004 156.95717166164070 0.0000000000000000 0.0000000000000000 0.0000000000000000 0.0000000000000000 3.1301121816210391 3.2642171741044739 1.1341443741253785 1.0645169190062014 939.23016364100795 939.23016289738700 1.0649664377216406 
-53.109305561449389 -59.478317811008800 146.79996930502412 -53.109305561449396 -59.478317811008786 146.79996930502415 -389.75534082982585 -1.1733074589839318e-05 -2.6200237597330310e-06 1.4176414931513783e-05 -391.38851755426549 9.5132790534080414e-12 -6.2716498661075103e-13 4.1299259123661620e-08 -0.012655018436358204 -9.0631215618066796e-12 1.4661270427233931e-11 -3.4120680212300253e-11 -0.012652549239951202 -52.426757905599978 -59.655776269200025 149.26381449600007 118.05125250056595 0.0000000000000000 0.0000000000000000 0.0000000000000000 0.0000000000000000 3.1361432592956793 3.2767411536404718 1.1406405370353081 1.0648028928823683 961.85629498190553 961.85629499616891 1.0680188029980380 
-35.668359659399904 -65.904657950807177 142.33786794042888 -35.668359659399911 -65.904657950807177 142.33786794042888 -372.41640421669996 -2.9818902711292523e-06 1.7184149277093816e-06 6.5518500849565713e-07 -372.19857927341758 6.9032002336655296e-12 -4.3687276018999910e-13 4.4616127681251783e-08 -0.012648350646074788 -1.4362619259154995e-11 1.9088989718038919e-11 -4.1506644723325950e-11 -0.012634459989020160 -35.172917262399999 -66.029770167599992 144.99959110400002 155.12084301790807 0.0000000000000000 0.0000000000000000 0.0000000000000000 0.0000000000000000 3.1346660289859680 3.2732653509700902 1.1386331539189276 1.0661155756764673 929.57056358418038 929.57056328342867 1.0670690898370980 
-51.073536309170230 -66.469617895752592 139.41199563569722 -51.073536309170230 -66.469617895752606 139.41199563569720 -379.86813991161875 -1.1583409021807263e-05 6.8778415596743705e-06 8.4639081348281844e-06 0.0000000000000000 9.2047480748647104e-12 -4.2921222132008547e-13 4.6791024388426194e-08 -0.012671684876128124 -1.6320752336933007e-11 1.0622916920977667e-11 -4.3818409159102229e-11 0.0000000000000000 -50.412828244765279 -66.590128188430739 142.20347059834828 136.07757377940416 0.0000000000000000 0.0000000000000000 0.0000000000000000 0.0000000000000000 3.1204216569107275 3.2431132029677254 1.1226880915036295 1.0611155980285940 912.40804275492576 912.40804291537745 1.0595534704609655 
-95.699167583830246 -159.35282809830230 71.838764568461144 -95.699167583830246 -159.35282809830230 71.838764568461130 -652.39744967806530 -1.6013903109630052e-05 -2.2986735300317792e-05 -3.2900876817861569e-05 -652.68802899923844 1.5881185255750552e-11 2.2473134464462423e-12 9.7020844691542152e-08 -0.013325956204017362 -3.8853422202534493e-11 5.2555580552272227e-11 -1.3875797765813587e-11 -0.013313920214077483 -94.559718839999974 -158.71675115199997 77.626866652000004 109.98746742214213 0.0000000000000000 0.0000000000000000 0.0000000000000000 0.0000000000000000 3.1326729850722681 3.2693213116989743 1.1366825895192572 1.0664384653581322 1412.7554139616291 1412.7554312574123 1.0661501614141558 
-90.768694445723213 -159.10042618334552 76.873525045885629 -90.768694445723213 -159.10042618334549 76.873525045885600 -606.77398232119674 -5.7792999649525685e-05 -5.2899168387901200e-05 -6.7298992825484943e-05 -591.80488839823988 1.5144441256609298e-11 2.2259971643734389e-12 9.3278318402667524e-08 -0.013318404762694353 -1.0875384055458280e-11 9.6210958678052996e-11 2.6027222075623616e-11 -0.013326205292598543 -89.682139475999989 -158.46640519600001 82.438353807199988 112.88451412247700 0.0000000000000000 0.0000000000000000 0.0000000000000000 0.0000000000000000 3.1341976871079074 3.2722324245690113 1.1380658811223581 1.0664384653581331 1330.1929885742115 1330.1930469625154 1.0667896245547597 
-103.93769771985519 -155.54913229810921 81.237692205175648 -103.93769771985522 -155.54913229810921 81.237692205175634 -599.62141156178348 -1.3353361173952908e-05 -1.2574115528950942e-05 -7.6127815943773577e-05 0.0000000000000000 1.7113088723874625e-11 2.1260770921571748e-12 9.0034255606497027e-08 -0.013361129703195964 -3.2781585780550269e-11 6.2792766806310992e-11 -3.2697782885812654e-11 0.0000000000000000 -102.70986659571734 -154.94403864466588 86.608986019839278 111.02505284862640 0.0000000000000000 0.0000000000000000 0.0000000000000000 0.0000000000000000 3.1355980395157412 3.2753811486568627 1.1398182657522289 1.0647186872350793 1331.4499543772470 1331.4499367693491 1.0676466322793134 
-101.60992360154377 -167.87944442570947 78.162403457058531 -101.60992360154383 -167.87944442570947 78.162403457058588 -635.08054558982838 -7.5491178526858479e-06 -1.5934445056907713e-05 -7.2947258846069909e-05 0.0000000000000000 1.6764034604932476e-11 2.4855673075308005e-12 9.2320245670407544e-08 -0.013298527410200026 -3.3265520661322367e-11 3.0150132381459631e-11 -2.6865589429845320e-11 0.0000000000000000 -100.40706467681501 -167.17391327890167 83.670075146830683 105.53983917324770 0.0000000000000000 0.0000000000000000 0.0000000000000000 0.0000000000000000 3.1330235015753378 3.2700503973671902 1.1370612019936253 1.0650482553353688 1379.6297783609987 1379.6297690977656 1.0663337550809937 
-115.98109408969631 -99.958124306224605 91.663308216479322 -115.98109408969633 -99.958124306224605 91.663308216479336 -500.89162551001016 -1.2680111479841819e-05 -1.7828697145058129e-05 -5.4423847885649763e-05 -507.27233191484839 1.8914784074192044e-11 5.3979043457275121e-13 8.2284499214324569e-08 -0.013432033049778615 -2.9358878898679140e-11 -2.3984779255685095e-11 -1.6921019155252112e-10 -0.013437580455212790 -114.62406224400000 -99.805851428000011 96.572263865600007 85.211636250682801 0.0000000000000000 0.0000000000000000 0.0000000000000000 0.0000000000000000 3.1366342007114976 3.2767742735193441 1.1401341161247982 1.0600872959425409 1154.8578670303598 1154.8557594721947 1.0677450756120304 
-112.40624320921434 -91.178398932369134 95.481642088534969 -112.40624320921437 -91.178398932369163 95.481642088534969 -472.93878686321563 -5.6108936246352371e-06 -8.7051312544320399e-07 -5.9249733448658288e-05 -469.09546269198830 1.8381407507206404e-11 2.8466118351389014e-13 7.9446177636555162e-08 -0.013369986204996506 -1.1127931748289616e-12 3.8662235603900257e-11 -1.8466495071803621e-10 -0.013344698695921866 -111.08756211600000 -91.097641973600034 100.22126851279998 99.535403830130534 0.0000000000000000 0.0000000000000000 0.0000000000000000 0.0000000000000000 3.1460257907973714 3.2970895396390225 1.1511213916959908 1.0640637252429774 1124.5154532463528 1124.5165555216395 1.0729588027266073 
-114.24273085742202 -97.790420570909632 104.02610055721333 -114.24273085742199 -97.790420570909632 104.02610055721333 -434.73963953570797 -5.4898064318442653e-06 -3.7604447464609248e-06 -5.2371104300747540e-05 -434.12316740197241 1.8647861033116445e-11 4.7639669986665467e-13 7.3094751584790187e-08 -0.013226619766076598 -5.6517314234373758e-11 -1.1383684758072705e-10 -2.2633788821333111e-10 -0.013224104231998442 -112.90434805199999 -97.655804887999992 108.38681131359999 128.09762094244454 0.0000000000000000 0.0000000000000000 0.0000000000000000 0.0000000000000000 3.1357039131073212 3.2761359526937777 1.1404770136334386 1.0640512694993363 1042.2248085696012 1042.2245996564454 1.0679339362509686 
-108.43069801963846 -104.02661438017368 95.825800772003021 -108.43069801963841 -104.02661438017368 95.825800772002978 -466.50083279804613 -5.9659552896129866e-05 -5.7290766637214845e-06 -6.3004542290919223e-05 0.0000000000000000 1.7788104322846721e-11 6.5447647301652988e-13 7.9190344948187885e-08 -0.013410847601116981 5.6215952060071165e-11 -8.7780789244601161e-11 -1.6518045856632387e-10 0.0000000000000000 -107.15466629968294 -103.84120130723400 100.55016500991876 102.24201981555134 0.0000000000000000 0.0000000000000000 0.0000000000000000 0.0000000000000000 3.1127062041117268 3.2255425491542882 1.1127960674983648 1.0546211284182321 1042.6539359850822 1042.6548535581633 1.0548300891536295 
-27.359199365049449 -115.56289204360898 98.605180854125820 -27.359199365049449 -115.56289204360893 98.605180854125891 -153.67543265814766 4.7573109008658552e-05 2.1612706513032396e-05 -6.7014161812788448e-05 0.0000000000000000 1.4590846231606891e-07 -1.3055432373540342e-06 -1.7633379455873363e-06 -0.014152075677718664 -3.6357741804193411e-11 -1.1211716049352301e-09 -2.2051348344916520e-09 0.0000000000000000 -26.889884864405381 -115.37486796036181 103.37575244326078 96.382960025775517 0.0000000000000000 0.0000000000000000 0.0000000000000000 0.0000000000000000 3.1851616410350041 3.3788591162296910 1.1937788270244567 1.0923483743641544 629.04477850718115 629.04695971039155 1.0925864513972465 
-110.87054034734791 -103.80538439127264 149.86973778427875 -110.87054034734795 -103.80538439127260 149.86973778427870 -396.16639714339152 1.2720631333312334e-06 4.3035939905246312e-06 3.7474811176123012e-07 -397.91022077404585 1.8151147251899144e-11 6.4859229098601645e-13 3.9017391983975351e-08 -0.012622849378941061 -9.9581877195553941e-12 -1.8911738274050356e-11 -2.0789495269175457e-11 -0.012610691140487955 -109.56833416800004 -103.62177336400003 152.19744990400002 70.302883591683823 0.0000000000000000 0.0000000000000000 0.0000000000000000 0.0000000000000000 3.1280939202018678 3.2594148148439506 1.1313414375597632 1.0637713403109081 956.88282959233084 956.88282989259505 1.0636537610698906 