# For a description of the Tecplot format see the Tecplot User's guide.
#
Variables=x,y,z,s_u,s_v,s_w,s_p,mono_f_vel_u,mono_f_vel_v,mono_f_vel_w,const,u_nu,v_nu,w_nu,p_nu,x_nu,y_nu,z_nu,const,u_ref,v_ref,w_ref,vol_ref,x_ref,y_ref,z_ref,const,I1,I2,I3,J,p1,p2,p3
Zone f=fepoint, n=3174, e=16683, et=brick, c=black
-25.5999 -155.244 104.435 -25.599880334313429 -155.24393626846918 104.43537926347773 -356.41781457479715 -4.0066860691614617e-05 -0.00015211335675287954 -0.00016068027626503921 -336.02808118703973 6.8062927968681741e-07 4.6371992823424080e-07 0.00053401539185671254 0.12599298505116646 4.9085833595361226e-09 1.6379695931267334e-08 5.5722123653772206e-09 0.12565733240458418 -24.903554063199991 -154.16086777200002 112.24023381839994 89.724962256112903 0.0000000000000000 0.0000000000000000 0.0000000000000000 0.0000000000000000 3.2612651538200463 3.5338332666271928 1.2724389608925049 1.1306102863482699 1113.5680601513607 1099.4205865725094 1.1278503404898255 
-38.440280275759193 -156.70924915454242 107.17667800449618 -38.440280275759179 -156.70924915454239 107.17667800449621 -289.10993273403182 0.00012457180051807457 -0.00011657647474891568 -7.8480624651737827e-05 0.0000000000000000 1.2537310382603266e-05 0.00011025539856263352 0.00056585132998259585 0.12261541580783854 -1.2358356955599192e-08 1.1344976109132199e-08 2.4295438662148417e-09 0.0000000000000000 -37.438273663334591 -155.10473791080037 114.93291110338620 89.036758072416930 0.0000000000000000 0.0000000000000000 0.0000000000000000 0.0000000000000000 3.3453517143652216 3.7228794960524132 1.3782476527994063 1.1646377676356863 1157.6637222314266 1157.3563262545320 1.1741807691311015 
-32.369472662516777 -148.86880934303738 112.71653327958995 -32.369472662516756 -148.86880934303738 112.71653327958988 -243.34094779645028 3.6656837068631494e-05 -8.1483077070903688e-05 -3.4590457251145502e-05 0.0000000000000000 8.0821368766970114e-07 4.2375936359917432e-07 0.00048885509835017160 0.12082194409637594 -4.3872115975515126e-09 9.2540893150090467e-09 -1.4244001658603958e-09 0.0000000000000000 -31.542619574254449 -147.87907313389167 119.86135157363466 98.260374494724786 0.0000000000000000 0.0000000000000000 0.0000000000000000 0.0000000000000000 3.2921632969821060 3.6047642340582091 1.3128396252995957 1.1490095272543779 1008.5231323853430 1000.4961643148420 1.1455719300460110 
-29.417592661476199 -143.88414192832010 104.30964492819547 -29.417592661476196 -143.88414192832002 104.30964492819552 -242.94881402841514 3.9015657205486089e-05 -0.00011260800383831522 -6.4689204359728931e-05 0.0000000000000000 7.5258052059656865e-07 3.9251445160815019e-07 0.00053470106917075111 0.11980995032653208 -4.7060900461070182e-09 1.3918656101147539e-08 6.7393423265436319e-09 0.0000000000000000 -28.647655777685479 -142.96738158566356 112.12452093910819 112.69127588814607 0.0000000000000000 0.0000000000000000 0.0000000000000000 0.0000000000000000 3.3053242595943755 3.6347814764589592 1.3299644106913511 1.1497853408888192 1022.9242830224359 1025.5906849153935 1.1532502904290285 
-24.945570496503979 -202.20270776414731 62.586166747096357 -24.945570496503983 -202.20270776414733 62.586166747096350 -1146.5088338418507 8.6743135987807498e-06 1.0080498880392039e-06 5.2964945332367732e-06 -1152.8791212635558 6.6829770786758214e-07 7.5806697452662775e-07 0.00076223512024142803 0.17969215223046589 -6.9552544109206166e-10 -4.8722430187581973e-10 -7.6108743891916887e-10 0.17980938590994902 -24.261860196399997 -200.43215969199997 73.726546483199982 142.71380061529433 0.0000000000000000 0.0000000000000000 0.0000000000000000 0.0000000000000000 3.2506648864658243 3.5151603220197360 1.2647115067630283 1.1244311099464963 2500.4960909035349 2500.4959048750393 1.1245946790940275 
-24.839054287572683 -189.21955149847000 64.306629233409240 -24.839054287572683 -189.21955149847003 64.306629233409240 -1126.4604447037691 2.8568007906710790e-05 -3.7325775357917315e-05 -1.1951555517209583e-05 -1134.2581817103219 6.6629022812958461e-07 6.7668591974268111e-07 0.00075285278165182479 0.17823732226457600 -2.9339820595055039e-09 3.3396995830239839e-09 2.0386449903306439e-09 0.17896992399455108 -24.157397762799999 -187.63907770800003 75.309882232799993 165.73632395326644 0.0000000000000000 0.0000000000000000 0.0000000000000000 0.0000000000000000 3.2507287010649746 3.5151927239772149 1.2646757944941434 1.1244311099464970 2467.0235742735717 2467.0239347426768 1.1245744586714104 
-35.778118626132311 -197.10727959654270 71.137901885191070 -35.778118626132283 -197.10727959654278 71.137901885191070 -1114.0678557999036 1.4049435966019501e-05 -2.9231862191527404e-05 -5.6433180731091862e-05 0.0000000000000000 8.7245537852553845e-07 7.2612780854797165e-07 0.00071559924459307922 0.17826292625221093 -2.1109184462861521e-09 6.2813602784383503e-09 -1.4937119332106715e-09 0.0000000000000000 -34.885542273181727 -195.41132893576267 81.596679120775832 139.46796289390394 0.0000000000000000 0.0000000000000000 0.0000000000000000 0.0000000000000000 3.2483643180613950 3.5103996354397369 1.2622516635790009 1.1221326706073169 2441.3023858058136 2441.3024707828004 1.1234970151560832 
-19.399373139383577 -196.21255178710496 70.938266109722846 -19.399373139383567 -196.21255178710484 70.938266109722875 -1137.2334810347518 1.4622797509308790e-05 -1.8996548955627506e-05 -2.6559731074933451e-05 0.0000000000000000 5.6377024629239426e-07 7.2051947119788906e-07 0.00071668793468404612 0.17903699343243304 -1.2267250498100047e-09 3.0504797748835618e-09 2.8084704604971255e-11 0.0000000000000000 -18.822600960987238 -194.52970000168264 81.412954998504986 111.95285379220412 0.0000000000000000 0.0000000000000000 0.0000000000000000 0.0000000000000000 3.2511481963258153 3.5161031843129673 1.2651702241345355 1.1244311099464965 2496.0239743642737 2496.0238804773257 1.1248011712115908 
-23.316277418917675 -103.53394002262486 29.457862836881979 -23.316277418917675 -103.53394002262486 29.457862836881979 -1082.0103790151697 -3.5470410588796148e-05 4.2940165981784841e-05 -5.8779228704553669e-05 -1094.6499654334964 6.3759092491788572e-07 1.3959127853624409e-07 0.00094289640550115905 0.18925972903687907 1.7740011633517287e-09 -8.0976295699677108e-09 1.1212761428802878e-08 0.19194669098133985 -22.663982073999996 -103.20790935200000 43.238681550399988 69.202643319072678 0.0000000000000000 0.0000000000000000 0.0000000000000000 0.0000000000000000 3.2501677253991370 3.5140956219124710 1.2641424176783873 1.1244311099464970 2390.5792956142886 2390.4881072673888 1.1243433971427537 
-30.951166938558011 -111.21153816828698 33.532717080942199 -30.951166938558007 -111.21153816828699 33.532717080942192 -1051.0632026530084 2.1195358195403463e-06 6.6440849574905849e-05 -7.9597946734280399e-05 -1042.6174280361120 7.8148332119387653e-07 1.8771601095757262e-07 0.00092067467006629055 0.18465830147194881 5.1823651423858209e-09 -1.1365018407897914e-08 1.2505938265696165e-08 0.18517144364552277 -30.151660686400003 -110.77310694400001 46.988755992800002 74.715282964229786 0.0000000000000000 0.0000000000000000 0.0000000000000000 0.0000000000000000 3.2513773641520864 3.5165648310775732 1.2654021499287464 1.1244311099464961 2331.3842038898697 2331.1884986346408 1.1249078053044903 
-19.310203175936842 -103.89841492777045 36.813902040071049 -19.310203175936838 -103.89841492777047 36.813902040071056 -1028.2237352282184 -4.3706796632017146e-05 3.4971543748600922e-05 -8.4147572714481396e-05 -1030.6986122293458 5.6208968832183171e-07 1.4187588259773065e-07 0.00090278111615305068 0.18136719165912304 4.0055705235908693e-09 -9.2886400091473941e-09 1.1850058089398111e-08 0.18180866132555965 -18.735150314000002 -103.56704831999998 50.008419303199993 79.719497061372692 0.0000000000000000 0.0000000000000000 0.0000000000000000 0.0000000000000000 3.2502768484466764 3.5143111456483349 1.2642485989271282 1.1244311099464972 2294.3031194569012 2294.7890386298650 1.1243882303016670 
-26.199772223254133 -98.743487304750502 37.872059457989515 -26.199772223254136 -98.743487304750502 37.872059457989515 -1043.4603407043733 2.4668327298055405e-06 1.5213157205997814e-05 -0.00013016824164551182 0.0000000000000000 6.9193525623068030e-07 1.0956376716997339e-07 0.00089701057988733613 0.18497548947762465 2.1977670529583517e-09 -6.3206415330206628e-09 1.2892354335040619e-08 0.0000000000000000 -25.491879232152165 -98.487589184379729 50.982237960580505 72.292163684038698 0.0000000000000000 0.0000000000000000 0.0000000000000000 0.0000000000000000 3.2500677653185006 3.5139517166888603 1.2641007055201603 1.1244311099464979 2317.8787490278391 2317.9885931781296 1.1243187327175415 
-26.145784346334143 -104.44599705286588 100.59508905773598 -26.145784346334150 -104.44599705286588 100.59508905773599 -228.28759865816102 3.6424321817263900e-05 0.00012066920586832660 -8.9916668299298995e-06 0.0000000000000000 1.2024918064712523e-05 -2.5227824319783904e-05 0.00057218604020253653 0.12171975875585840 -6.8725245662039623e-09 -1.9485926970113617e-08 6.9299792721944799e-09 0.0000000000000000 -25.283559732051039 -104.23282252886388 108.75695162467670 96.378087069502698 0.0000000000000000 0.0000000000000000 0.0000000000000000 0.0000000000000000 3.2953307962342242 3.6096410711412963 1.3143496036772577 1.1532945510232566 959.92748427170613 959.91267476694054 1.1462405630163481 
-26.815314722197261 -118.43297580339215 102.61460680156625 -26.815314722197279 -118.43297580339221 102.61460680156630 -156.44742197857110 4.6537219666123763e-05 1.8420984577709151e-06 -3.9606386693031105e-05 0.0000000000000000 2.3033282509895887e-05 -1.8179546888072558e-05 0.00056625155604375264 0.11424345106321858 -9.5526710455591946e-09 -1.3581137679674557e-09 6.6827020463378823e-09 0.0000000000000000 -25.913646985361510 -118.01095136745833 110.66456878241424 88.846747377876298 0.0000000000000000 0.0000000000000000 0.0000000000000000 0.0000000000000000 3.3791573482797754 3.7934752652323205 1.4150777454602446 1.1778458634972053 987.98401166320014 987.96310355725996 1.1897809079146908 
-37.574904146721025 -112.77463611448916 104.16036464796797 -37.574904146721018 -112.77463611448913 104.16036464796797 -162.68205866367782 -4.3975542412157566e-05 5.4563239768017966e-05 3.2538952085019878e-05 0.0000000000000000 5.4179274949586662e-05 -6.1815195161503728e-05 0.00055862852527636118 0.11511479530159842 5.8314323020840293e-09 -1.4109705235144078e-08 -6.5814842851944969e-09 0.0000000000000000 -36.236867317722961 -112.72601430119678 112.03758904139967 95.996160021407249 0.0000000000000000 0.0000000000000000 0.0000000000000000 0.0000000000000000 3.3869758598655002 3.8113513533020731 1.4253157070348383 1.1869560256085272 1016.0007534956612 1015.9998756708480 1.1938936947543985 
-34.515750800044628 -105.02791908171905 97.008289101956848 -34.515750800044650 -105.02791908171909 97.008289101956919 -221.79814304930238 5.5141427056825377e-07 0.00013582476848574170 -1.1434468155423874e-05 0.0000000000000000 2.7901010228996218e-05 -7.4693481872698927e-05 0.00064195445916298338 0.12276268774836106 -4.3688540010297587e-09 -2.1371795193384139e-08 8.8237323155223709e-09 0.0000000000000000 -33.380789828628046 -105.09637623893835 105.63342596379557 85.433794965156210 0.0000000000000000 0.0000000000000000 0.0000000000000000 0.0000000000000000 3.3562252347475976 3.7404429188206767 1.3845843391853492 1.1690246247626372 1021.6482283526519 1021.6423305085399 1.1766495869942473 
-114.63241525230715 -161.84316119765248 117.93541547844941 -114.63241525230713 -161.84316119765251 117.93541547844940 -630.39710936114579 7.3109989078555807e-06 -2.2830239338482027e-05 -5.2067731389207886e-05 -627.89694579475076 2.3585978362883342e-06 5.0508519588987610e-07 0.00046039454182533746 0.13332050614243560 -6.2945809919765293e-10 2.0978529400996352e-09 1.3147415425021122e-09 0.13332881002237559 -112.21942232800005 -160.66347960400000 124.66427103520003 147.55923210393107 0.0000000000000000 0.0000000000000000 0.0000000000000000 0.0000000000000000 3.2673295146239405 3.5528878903770225 1.2859119182951197 1.1244311099464974 1634.7259510460990 1634.7259559979250 1.1342203103281696 
-101.69618248201770 -159.23620453201306 109.15625666657705 -101.69618248201775 -159.23620453201320 109.15625666657705 -655.21019171235605 -4.8689799964834393e-05 -3.8658814798851540e-05 -9.6755850210216010e-05 0.0000000000000000 2.1147926764497620e-06 4.8874428060230468e-07 0.00050827064555747370 0.13354166291903016 4.8718884166526732e-09 3.2674039535178888e-09 1.4210404611928770e-09 0.0000000000000000 -99.532617471171264 -158.09468895943013 116.58484116745363 117.70414803503969 0.0000000000000000 0.0000000000000000 0.0000000000000000 0.0000000000000000 3.2120848200240748 3.4215842078111929 1.2090380306163586 1.1038610817887293 1562.5583285395253 1562.5583332494477 1.0993513480547217 
-106.60069310463041 -149.85921563655035 113.83618220053420 -106.60069310463041 -149.85921563655032 113.83618220053417 -606.79220501324642 -4.0177623373800575e-05 -4.4482853048189729e-05 -4.3035287724227240e-05 0.0000000000000000 2.2072264617423176e-06 4.2996743943035654e-07 0.00048274922544067072 0.13200241063843551 4.2450048351387350e-09 3.9947638112616748e-09 -5.7258706497334539e-10 0.0000000000000000 -104.34256255272837 -148.85497981259945 120.89176065121424 119.29379793442074 0.0000000000000000 0.0000000000000000 0.0000000000000000 0.0000000000000000 3.2118468232995094 3.4268507161288642 1.2149376326412975 1.1058217766142362 1483.1565514305339 1483.1565457279905 1.1019771024602880 
-102.71359171992577 -163.48679928363421 117.83060622131903 -102.71359171992573 -163.48679928363427 117.83060622131906 -622.60138530917504 -2.5443599384297387e-05 -5.8081788903367073e-05 -4.7627474152023434e-05 0.0000000000000000 2.1339674759757173e-06 5.1538785816873656e-07 0.00046096610670076643 0.13278637293025067 3.1227301068662625e-09 5.7015813478896647e-09 -4.8933213330730267e-11 0.0000000000000000 -100.53040969477119 -162.28305471776312 124.56781543385799 141.51484144144280 0.0000000000000000 0.0000000000000000 0.0000000000000000 0.0000000000000000 3.2157784590156813 3.4383483803954955 1.2225549608647477 1.1072364834396411 1519.3598012546856 1519.3597824975072 1.1055175372499304 
-80.148626819055067 -149.80081887949683 79.669444791924207 -80.148626819055053 -149.80081887949680 79.669444791924207 -687.55068857886101 -0.00011698169075500464 -8.5632821725052554e-05 -4.1549748551225377e-05 -689.57408044741521 1.7086925817866307e-06 4.2960137580649871e-07 0.00066907348491085372 0.14675616930145546 1.1037517869940962e-08 1.4109750698064836e-08 6.5559126703676380e-09 0.14729453783410948 -78.400527573600002 -148.79743798799998 89.448228916799977 108.06316173413846 0.0000000000000000 0.0000000000000000 0.0000000000000000 0.0000000000000000 3.2675549829535764 3.5509074367106614 1.2836592285376551 1.1244311099464963 1738.5222241800923 1738.5224633174259 1.1332045964134232 
-81.931845379136064 -163.74212689529290 77.849141177907782 -81.931845379136092 -163.74212689529290 77.849141177907782 -870.85171646984861 -6.5943410163082469e-05 -0.00014220905769155441 -7.7209928305351587e-05 -877.89231389628003 1.7423003443595153e-06 5.1698830194624168e-07 0.00067900029527478978 0.15979241650653808 -3.1561359206617551e-09 1.8383854905291537e-08 8.8771205416605837e-09 0.16329215907648426 -80.149363288800018 -162.53464431600008 87.773009718400019 109.57810873427631 0.0000000000000000 0.0000000000000000 0.0000000000000000 0.0000000000000000 3.2696703452991689 3.5542816399925217 1.2848485424399345 1.1244311099464972 2060.1182577263312 2060.1183014686899 1.1337884415478707 
-86.159475072284479 -161.35699750108657 85.672907590939218 -86.159475072284465 -161.35699750108657 85.672907590939261 -786.05602321694414 -4.5254570948088914e-05 -9.6405960899424668e-05 -0.00014128828877466460 0.0000000000000000 1.8219771734939716e-06 5.0203784063285184e-07 0.00063633431092569037 0.15348620952524772 8.2077056496461630e-09 6.4909797287954121e-09 6.3609078746680084e-09 0.0000000000000000 -84.295478612813938 -160.18443337667750 94.973195224810283 106.11323630727971 0.0000000000000000 0.0000000000000000 0.0000000000000000 0.0000000000000000 3.2044284898585138 3.4193261117829077 1.2150131383223026 1.1057558183511709 1776.7514842263975 1776.7514566299449 1.1018727567877529 
-88.380837998011032 -152.43205142910730 83.131650368793828 -88.380837998010989 -152.43205142910722 83.131650368793785 -750.99435246622033 -5.3455791570980335e-05 -0.00012569162035195146 -0.00013412931687945513 0.0000000000000000 1.8638425040296001e-06 4.4609448757171322e-07 0.00065019275648836583 0.14969957720393098 3.8829518951757184e-09 1.2797042650726410e-08 2.3672246977731519e-09 0.0000000000000000 -86.474010682800568 -151.39014911596544 92.634484883397832 94.367740677547317 0.0000000000000000 0.0000000000000000 0.0000000000000000 0.0000000000000000 3.2273614086233819 3.4674034826045297 1.2402621001784169 1.1100498994533599 1753.3032731186838 1753.3032685483420 1.1136778346036278 
-26.736906184087129 -133.19110872882544 133.12655467752515 -26.736906184087122 -133.19110872882541 133.12655467752512 -343.68719637956650 3.6610830484377858e-05 -3.1191751494990971e-05 0.00014393284674054407 -366.47891388932874 7.0205845484339047e-07 3.2548839223878195e-07 0.00037755146178142235 0.13147583792045442 -1.2675290471243246e-09 8.7127436274954930e-10 -1.1227802073134146e-08 0.13146183467804717 -26.018656529999991 -132.43089511199997 138.64462455200004 49.421240865332216 0.0000000000000000 0.0000000000000000 0.0000000000000000 0.0000000000000000 3.2477616283274737 3.5083845218962781 1.2608406789694215 1.1314871908584099 1098.2578321180301 1098.2657943737483 1.1229811006428767 
-33.341032988471021 -134.73969839376184 131.99466479577299 -33.341032988471028 -134.73969839376193 131.99466479577302 -323.27874085432234 -2.3650920619146608e-06 2.7446337050776992e-05 7.4853833966879709e-05 -249.34624917067694 8.2652438040953236e-07 3.3519525399761108e-07 0.00038372408932474400 0.13146193359831637 1.8397257406979918e-09 -1.4883418250216198e-09 -5.7016018249980797e-09 0.13965628215571033 -32.495446914399992 -133.95681332000001 137.60295016000006 48.530522504776933 0.0000000000000000 0.0000000000000000 0.0000000000000000 0.0000000000000000 3.3043579982648255 3.6318863250729119 1.3279757035189192 1.1514595312065796 1168.5338499782195 1168.5273460637979 1.1522097476171895 
-29.183629619021016 -137.25853816557427 134.93618868940754 -29.183629619021016 -137.25853816557427 134.93618868940754 -344.03383596530762 4.0046584648635788e-05 3.5423807029781967e-05 4.5941690419804952e-05 -363.36686229295543 7.4817109343983123e-07 3.5098384598697407e-07 0.00036768283684551761 0.13229883525527897 -6.4601349218475368e-11 -5.9267929364766054e-09 -2.9288188948370189e-09 0.13215342826601043 -28.418203856399998 -136.43877710800004 140.31002455199999 44.353383947079159 0.0000000000000000 0.0000000000000000 0.0000000000000000 0.0000000000000000 3.2589031327635798 3.5314154350675220 1.2726874705449789 1.1368338692791631 1121.1888431440407 1121.1719227724320 1.1281004286627145 
-27.501354738550464 -130.21843053255287 138.78093817015122 -27.501354738550468 -130.21843053255284 138.78093817015130 -375.20891446751665 2.1733091335951511e-05 2.6099331756647611e-05 2.5110296649959478e-05 0.0000000000000000 7.1646577895490005e-07 3.0685504137650810e-07 0.00034671595050284049 0.13396918133475663 -2.4795133504380703e-10 -1.6416720276805878e-09 3.9676649224496621e-10 0.0000000000000000 -26.768365491316434 -129.50173712462359 143.84833436668455 49.139845408488213 0.0000000000000000 0.0000000000000000 0.0000000000000000 0.0000000000000000 3.2646419384838707 3.5469549880298716 1.2826253844481137 1.1375581500490204 1198.9342503669398 1198.9352542021979 1.1324788053607582 
-41.063242554081434 -65.241497733901596 149.76114482691088 -41.063242554081434 -65.241497733901596 149.76114482691085 -563.13243848963373 -1.6426932931023312e-05 -1.9098750673572992e-06 3.3378958975850645e-05 -568.70165714804921 9.7206247320902328e-07 -1.0043344556009970e-07 0.00028683669279416796 0.13502789979678653 -4.4469916759631793e-10 -5.0141314315476217e-10 -2.3883229729012111e-10 0.13536003899461482 -40.068761925200000 -65.476070995999990 153.95338104800004 156.95717166164070 0.0000000000000000 0.0000000000000000 0.0000000000000000 0.0000000000000000 3.2451228188574457 3.5040370759231951 1.2591586444387690 1.1210655990427401 1475.5918999108978 1475.5944722037518 1.1221361224160875 
-53.664201927292439 -59.334727493169119 144.66543260553152 -53.664201927292432 -59.334727493169119 144.66543260553155 -572.23317794022682 -2.0655407857176592e-05 -3.7831842149473121e-06 2.3467248968550685e-05 -575.26274278497272 1.2095488398922161e-06 -1.3745826432653982e-07 0.00031462555642747247 0.13470620125076044 7.0220855854301192e-10 -8.9867401450539341e-10 7.2708179698143751e-10 0.13516562194148765 -52.426757905599978 -59.655776269200025 149.26381449600007 118.05125250056595 0.0000000000000000 0.0000000000000000 0.0000000000000000 0.0000000000000000 3.2550858370228970 3.5253972290407511 1.2705752616235542 1.1214896401670131 1510.3403445499121 1510.3239083450278 1.1272319438051746 
-36.071143528370477 -65.803423537085678 140.03190091078693 -36.071143528370484 -65.803423537085678 140.03190091078699 -544.18740889488345 -3.7380181756139968e-06 1.9707039984909381e-06 2.0268506121112262e-07 -543.93387944907954 8.7797793238419963e-07 -9.6911179081615728e-08 0.00033989397323352927 0.13513251283304695 -2.9650967484815455e-10 2.3794077480855189e-10 6.4744791697944495e-10 0.13543824122388387 -35.172917262399999 -66.029770167599992 144.99959110400002 155.12084301790807 0.0000000000000000 0.0000000000000000 0.0000000000000000 0.0000000000000000 3.2525565786617059 3.5186438743268300 1.2662987469431999 1.1237118248837656 1457.6047425345530 1457.5996685578398 1.1253032895072921 
-51.610677563234397 -66.372107123907824 136.99361895549137 -51.610677563234418 -66.372107123907867 136.99361895549143 -555.71288207338625 -1.9439927167583311e-05 1.3281170756373964e-05 1.3366352174417713e-05 0.0000000000000000 1.1708467075044473e-06 -9.3346557150653111e-08 0.00035646288434421081 0.13463997896024849 5.1598313159791803e-10 -1.8503931786583628e-09 6.9084585015281269e-10 0.0000000000000000 -50.412828244765279 -66.590128188430739 142.20347059834828 136.07757377940416 0.0000000000000000 0.0000000000000000 0.0000000000000000 0.0000000000000000 3.2283802017102139 3.4649814427029741 1.2365970202654422 1.1148669375118514 1428.1530111179227 1428.1570105372339 1.1119759676905367 
-96.625514574545477 -159.86750906544802 66.824278933172565 -96.625514574545463 -159.86750906544805 66.824278933172550 -1040.7461482092156 -2.7770375184453861e-05 -4.2101068352966024e-05 -6.0189221968221672e-05 -1042.0458672262721 2.0192273721131308e-06 4.9270142410406947e-07 0.00073912307692580725 0.16451288700614977 -1.5575044720446293e-09 4.4088359719000904e-09 5.0713309784679402e-09 0.16675997907020720 -94.559718839999974 -158.71675115199997 77.626866652000004 109.98746742214213 0.0000000000000000 0.0000000000000000 0.0000000000000000 0.0000000000000000 3.2492910474801611 3.5122889675924776 1.2632135926402073 1.1244311099464968 2315.5438408785735 2315.5438410420038 1.1239183643548978 
-91.652039951082543 -159.61344357354440 72.052470841293811 -91.652039951082543 -159.61344357354440 72.052470841293811 -960.12731814629694 -0.00010071921897818996 -9.6250250014132656e-05 -0.00012226401392269781 -935.30171948744089 1.9254938380675046e-06 4.9110889976944350e-07 0.00071061175102116181 0.16129495501997307 2.9213707895289122e-11 9.0508011042884043e-09 1.1419485263626712e-08 0.16328381222029903 -89.682139475999989 -158.46640519600001 82.438353807199988 112.88451412247700 0.0000000000000000 0.0000000000000000 0.0000000000000000 0.0000000000000000 3.2524268536127461 3.5181000135627656 1.2658693427975343 1.1244311099464972 2169.7063639372473 2169.7063635218219 1.1250676149430954 
-104.93589765917700 -156.03874316764060 76.584305777672043 -104.93589765917703 -156.03874316764055 76.584305777671986 -945.92708228674871 -2.4038072961226605e-05 -2.3186202025128199e-05 -0.00013534164015934852 0.0000000000000000 2.1758505873992195e-06 4.6870194791992503e-07 0.00068589792545381545 0.15791782741400967 2.5741606085625575e-09 2.9759628990126754e-09 5.1390072734759007e-09 0.0000000000000000 -102.70986659571734 -154.94403864466588 86.608986019839278 111.02505284862640 0.0000000000000000 0.0000000000000000 0.0000000000000000 0.0000000000000000 3.2544586579660684 3.5233113382260934 1.2690732560228206 1.1212519076020153 2168.7561321343219 2168.7561320604568 1.1266092083545651 
-102.58782168709686 -168.45032418342024 73.390866919927802 -102.58782168709692 -168.45032418342026 73.390866919927745 -1009.6732539891079 -1.2850109978997005e-05 -2.9854144691733796e-05 -0.00013052375060402415 0.0000000000000000 2.1315971251711918e-06 5.4650023795232993e-07 0.00070331296637604634 0.16357827292694563 -2.3992841681925145e-10 4.8935359085934288e-09 1.1931659434020599e-09 0.0000000000000000 -100.40706467681501 -167.17391327890167 83.670075146830683 105.53983917324770 0.0000000000000000 0.0000000000000000 0.0000000000000000 0.0000000000000000 3.2498000703684835 3.5133834947345686 1.2637987894616274 1.1218509705114359 2255.7677332143062 2255.7677330502624 1.1241971269134945 
-117.08433139929207 -100.08133573951157 87.410465534801148 -117.08433139929207 -100.08133573951157 87.410465534801148 -766.01029671513015 -2.2646067551247178e-05 -3.2988877803105713e-05 -9.7222173405229234e-05 -777.30179559689418 2.4048083398468200e-06 1.1794966781053517e-07 0.00062685874429035948 0.14903226156879487 1.2764276912082368e-09 3.7778333791568880e-09 7.0407940709663903e-09 0.14941848298934682 -114.62406224400000 -99.805851428000011 96.572263865600007 85.211636250682801 0.0000000000000000 0.0000000000000000 0.0000000000000000 0.0000000000000000 3.2577305610323322 3.5280863002706107 1.2703455534760315 1.1130735853297711 1848.4865428324908 1848.4870552467519 1.1270279266621233 
-113.47830219302256 -91.243743337451988 91.375496709948266 -113.47830219302251 -91.243743337452003 91.375496709948266 -716.45298507186362 -9.5938729401844688e-06 -1.5342672858027025e-06 -0.00010461695646942611 -709.77374771095776 2.3368466270101695e-06 6.2553853874547372e-08 0.00060523591595895709 0.14593054037442954 -3.2987415966615372e-10 -1.5964298262021645e-09 9.3825625248404967e-09 0.14445222773502600 -111.08756211600000 -91.097641973600034 100.22126851279998 99.535403830130534 0.0000000000000000 0.0000000000000000 0.0000000000000000 0.0000000000000000 3.2726247608623145 3.5621685582786777 1.2898904694578364 1.1198896318216727 1790.7168929007591 1790.7163421326366 1.1358963590751439 
-115.33080690379171 -97.899344703871321 100.24822637117617 -115.33080690379167 -97.899344703871307 100.24822637117616 -647.93950991266195 -9.9787100641934326e-06 -7.6118947790476538e-06 -9.4920472075318417e-05 -647.08850926890784 2.3717602154749162e-06 1.0427250773936692e-07 0.00055684953467505238 0.13985372827193157 -2.1710184926987926e-10 -1.2006965385959311e-11 4.6088002285844818e-09 0.13945266827543754 -112.90434805199999 -97.655804887999992 108.38681131359999 128.09762094244454 0.0000000000000000 0.0000000000000000 0.0000000000000000 0.0000000000000000 3.2542225997273069 3.5245921894300647 1.2706493991562859 1.1201247578272584 1646.1834723706922 1646.1822997151876 1.1272393955282980 
-109.46808399267007 -104.17664116585863 91.732877692039736 -109.46808399267003 -104.17664116585864 91.732877692039750 -705.23891019139830 -0.00010942363125436260 -1.0507683905030067e-05 -0.00011059954768750015 0.0000000000000000 2.2612672873345563e-06 1.4361987132893717e-07 0.00060328698106104639 0.14394633665978701 1.4124831467099775e-08 -8.5430445023205041e-11 4.3183056957839969e-09 0.0000000000000000 -107.15466629968294 -103.84120130723400 100.55016500991876 102.24201981555134 0.0000000000000000 0.0000000000000000 0.0000000000000000 0.0000000000000000 3.2164781311387007 3.4342894315151109 1.2175874079152353 1.1029444882348889 1654.5337191380263 1654.5328858018206 1.1032540662691561 
-27.718514047469739 -115.74553961097463 94.503831377487728 -27.718514047469739 -115.74553961097457 94.503831377487714 -197.54747158042949 7.8854790555492896e-05 2.9533536678675336e-05 -0.00010349658961350411 0.0000000000000000 7.3165089967921581e-06 -2.1217483223570408e-05 0.00065183576445345846 0.11912705276329069 -1.1571472485053998e-08 -6.5497585264557985e-09 9.3745465750708962e-09 0.0000000000000000 -26.889884864405381 -115.37486796036181 103.37575244326078 96.382960025775517 0.0000000000000000 0.0000000000000000 0.0000000000000000 0.0000000000000000 3.3402023381671175 3.7087296369324894 1.3690421737077962 1.1690294400070593 983.06661539070308 983.06502940848816 1.1700169818046602 
-111.92920558530746 -103.95395305367214 147.85313911014256 -111.92920558530749 -103.95395305367218 147.85313911014254 -578.20780012415969 1.9237270016548661e-06 6.4794484483250130e-06 7.1881537646707131e-07 -580.91433888265590 2.3076512937481031e-06 1.4222401589769615e-07 0.00029724177620238379 0.13067676305471856 -2.0399633874487217e-10 -8.6959638245947067e-10 3.1759210990274132e-10 0.13078152527995138 -109.56833416800004 -103.62177336400003 152.19744990400002 70.302883591683823 0.0000000000000000 0.0000000000000000 0.0000000000000000 0.0000000000000000 3.2416768661302773 3.4946702847427527 1.2531292413090562 1.1197490088090838 1494.4283825827176 1494.4283672442039 1.1194564685955550 