# For a description of the Tecplot format see the Tecplot User's guide.
#
Variables=x,y,z,s_u,s_v,s_w,s_p,mono_f_vel_u,mono_f_vel_v,mono_f_vel_w,const,u_nu,v_nu,w_nu,p_nu,x_nu,y_nu,z_nu,const,u_ref,v_ref,w_ref,vol_ref,x_ref,y_ref,z_ref,const,I1,I2,I3,J,p1,p2,p3
Zone f=fepoint, n=3174, e=16683, et=brick, c=black
-25.8641 -155.652 101.199 -25.864069239157303 -155.65219154849277 101.19908900652126 -442.69101612603561 -5.6343246257076958e-05 -0.00020659008750996855 -0.00021581638921973248 -412.26650679896915 4.8078208081392404e-13 9.5035090907913412e-14 1.1315386316823603e-07 0.58502996372347171 -4.7760615733072479e-08 -2.4517137511723415e-07 -4.3903598206504480e-08 0.57628226405532257 -24.903554063199991 -154.16086777200002 112.24023381839994 89.724962256112903 0.0000000000000000 0.0000000000000000 0.0000000000000000 0.0000000000000000 3.3739593535288459 3.7706213286709902 1.3963011165314116 1.1848651147400016 1452.5505755124393 1452.5493613206675 1.1813019354590013 
-38.810497590061061 -157.32014192092004 103.95797925840668 -38.810497590061040 -157.32014192091995 103.95797925840675 -353.35206885712404 0.00017173316073066028 -0.00015213346436647102 -0.00010323858819428927 0.0000000000000000 0.00023724027590092510 -0.0017843356289523947 -0.00045841647881359219 0.56889576065119607 -8.4379875674975560e-09 -1.8264683625879148e-07 -4.0856475507605538e-08 0.0000000000000000 -37.438273663334591 -155.10473791080037 114.93291110338620 89.036758072416930 0.0000000000000000 0.0000000000000000 0.0000000000000000 0.0000000000000000 3.4888348098910074 4.0414079609501767 1.5545436592992274 1.2334103158723420 1510.8994045293800 1510.9005141115783 1.2471844636123888 
-32.683183951199737 -149.24188365415580 109.75392767688098 -32.683183951199709 -149.24188365415569 109.75392767688103 -292.78898179823057 4.8617850907230167e-05 -0.00010557161276799538 -4.9846579412445273e-05 0.0000000000000000 5.7170934653072436e-13 9.2370555648813012e-14 1.0358473545579727e-07 0.66362797280953212 -3.3824680133461314e-08 -1.9055452770642485e-07 2.9671571486795769e-08 0.0000000000000000 -31.542619574254449 -147.87907313389167 119.86135157363466 98.260374494724786 0.0000000000000000 0.0000000000000000 0.0000000000000000 0.0000000000000000 3.4147611265312459 3.8700663985774648 1.4559555183577737 1.2108437496780724 1312.9219332920795 1312.9238889598032 1.2062044669908334 
-29.709709720053244 -144.22970848447596 101.06919926511901 -29.709709720053265 -144.22970848447588 101.06919926511905 -293.28912414089848 5.0728502592038387e-05 -0.00015083680352108008 -8.0884768864279610e-05 0.0000000000000000 5.3151927303929369e-13 9.1482377229112899e-14 1.1329914784141691e-07 0.76038366101527555 -1.0320607159717130e-07 -1.9508510880839898e-07 3.1532429620446396e-09 0.0000000000000000 -28.647655777685479 -142.96738158566356 112.12452093910819 112.69127588814607 0.0000000000000000 0.0000000000000000 0.0000000000000000 0.0000000000000000 3.4324294737777175 3.9124012011413067 1.4813450617214532 1.2120037203788778 1333.4790962752552 1333.4789092727756 1.2171266790589061 
-25.204972852709954 -202.87010377958512 57.966797847260764 -25.204972852709950 -202.87010377958515 57.966797847260764 -1526.6185791122912 1.3554416941695497e-05 1.8814205106796145e-06 7.9956991175713352e-06 -1535.4656482213059 4.7079007359229753e-13 1.6875389974302382e-13 1.6151190607160970e-07 0.035723998950597274 -5.2737256782891855e-07 -5.8775050656441539e-08 -1.4403557031481005e-07 0.045064424382417256 -24.261860196399997 -200.43215969199997 73.726546483199982 142.71380061529433 0.0000000000000000 0.0000000000000000 0.0000000000000000 0.0000000000000000 3.3547358169134571 3.7364983548004358 1.3823440601417101 1.1765471853513103 3351.3866125394443 3351.3873630519524 1.1757033809748114 
-25.097677433402605 -189.81530031029655 59.744120063485227 -25.097677433402602 -189.81530031029658 59.744120063485227 -1498.9914803355034 4.1514048852253910e-05 -5.2587663992205175e-05 -1.7208848495803944e-05 -1510.3479553613013 4.6956882826520996e-13 1.4477308241112041e-13 1.5952386434037180e-07 0.11516944174913472 -4.2639827748027462e-07 -1.4519213721619946e-07 -1.5535325040355538e-07 0.087541546155468303 -24.157397762799999 -187.63907770800003 75.309882232799993 165.73632395326644 0.0000000000000000 0.0000000000000000 0.0000000000000000 0.0000000000000000 3.3567275228127356 3.7406498324074322 1.3845051339058985 1.1765471853513116 3308.7746793169017 3308.7732912376168 1.1766463847028932 
-36.116765577939098 -197.74655662673990 66.801160101085017 -36.116765577939084 -197.74655662674004 66.801160101085017 -1480.9199889462932 2.1675449253124504e-05 -4.1528824478468861e-05 -7.6404746701379394e-05 0.0000000000000000 6.1611826751573062e-13 1.7363888105137448e-13 1.5163012179186810e-07 -0.20413071171492828 -6.4099603394693349e-07 1.9018228883919747e-09 -2.2303614920409819e-06 0.0000000000000000 -34.885542273181727 -195.41132893576267 81.596679120775832 139.46796289390394 0.0000000000000000 0.0000000000000000 0.0000000000000000 0.0000000000000000 3.3609911202727396 3.7506625705211403 1.3903144453533518 1.1742213126469956 3286.3786628639486 3286.3763022866469 1.1792082914318436 
-19.618202754861521 -196.84689128560899 66.594926543704020 -19.618202754861510 -196.84689128560885 66.594926543704048 -1514.3359507436730 2.1312649172436393e-05 -2.7461222995215277e-05 -3.6684791584032328e-05 0.0000000000000000 3.9862557699166251e-13 1.6076029396572269e-13 1.5186079238560524e-07 0.37072307160896334 -1.0400957728300071e-07 4.3200414417601162e-08 -4.2345265123030253e-08 0.0000000000000000 -18.822600960987238 -194.52970000168264 81.412954998504986 111.95285379220412 0.0000000000000000 0.0000000000000000 0.0000000000000000 0.0000000000000000 3.3569268155990915 3.7411171730752804 1.3847792077755683 1.1765471853513110 3348.7747828679035 3348.7777298333135 1.1767656695455733 
-23.563760818521423 -103.65683505942646 23.743633440087457 -23.563760818521420 -103.65683505942647 23.743633440087454 -1428.8930897959137 -4.7408275697061505e-05 5.9782746890013695e-05 -8.2017942463387915e-05 -1447.0022175679808 4.4925174691456959e-13 3.2418512319054565e-14 1.9979268017777940e-07 5.0084587882990776 2.7967328792214971e-07 -4.9695140539188951e-07 6.2594477001594815e-07 5.0842621832680308 -22.663982073999996 -103.20790935200000 43.238681550399988 69.202643319072678 0.0000000000000000 0.0000000000000000 0.0000000000000000 0.0000000000000000 3.3557654021888079 3.7387889375821035 1.3836128230130744 1.1765471853513119 3187.7023852258822 3187.7023852247703 1.1762719915861679 
-31.254502730895283 -111.37680182688833 27.953157933333344 -31.254502730895293 -111.37680182688835 27.953157933333333 -1386.4938031049135 1.1776731675059744e-06 9.1448069802781010e-05 -0.00011040146827887026 -1376.4721668475306 5.5083715366777132e-13 4.9293902293356957e-14 1.9508406268187170e-07 4.7021924553856600 1.8313738565546210e-07 -7.9612939577810140e-07 7.2943482531680945e-07 4.5484933996208445 -30.151660686400003 -110.77310694400001 46.988755992800002 74.715282964229786 0.0000000000000000 0.0000000000000000 0.0000000000000000 0.0000000000000000 3.3576037610305609 3.7425659791162125 1.3855516259420053 1.1765471853513108 3106.6595481772752 3106.6595481760737 1.1771069478160958 
-19.528380476039999 -104.02332130967224 31.342783089240822 -19.528380476040002 -104.02332130967223 31.342783089240815 -1355.1980188486898 -5.9123233937392179e-05 4.9216123073258512e-05 -0.00011618996597673635 -1358.9218783661286 3.9462877410301189e-13 3.2418512319054571e-14 1.9129255335315063e-07 4.4686652769703272 4.3187344472657450e-07 -5.0232171253231047e-07 8.0077064677686014e-07 4.4637133456284195 -18.735150314000002 -103.56704831999998 50.008419303199993 79.719497061372692 0.0000000000000000 0.0000000000000000 0.0000000000000000 0.0000000000000000 3.3563042612214482 3.7398941244111721 1.3841792733729534 1.1765471853513116 3056.4749019497981 3056.4749019484721 1.1765136681439221 
-26.468349586803608 -98.839946355244592 32.435911653269962 -26.468349586803591 -98.839946355244592 32.435911653269962 -1375.6145005048954 3.6480839722011171e-06 2.1011292558988858e-05 -0.00017893987810965967 0.0000000000000000 4.8899773119615020e-13 3.0642155479654321e-14 1.9006981943903154e-07 4.7723520631937557 2.1555980895004745e-07 -4.3884143814933800e-07 1.0382347338808067e-06 0.0000000000000000 -25.491879232152165 -98.487589184379729 50.982237960580505 72.292163684038698 0.0000000000000000 0.0000000000000000 0.0000000000000000 0.0000000000000000 3.3562506066203586 3.7399403055827354 1.3842872471247392 1.1765471853513110 3088.4788075540368 3088.4788075527567 1.1765512127453956 
-26.467854322263754 -104.53287164414652 97.212799214146870 -26.467854322263751 -104.53287164414647 97.212799214146827 -270.94193526542603 4.9218437263931425e-05 0.00016188235546834225 -7.4763265551302599e-06 0.0000000000000000 8.0712803000660603e-05 -0.00070636383595965501 0.00097747414305361332 1.2981954001515041 -3.2645593919414374e-08 -1.5062916582642017e-07 1.2639771005535842e-07 0.0000000000000000 -25.283559732051039 -104.23282252886388 108.75695162467670 96.378087069502698 0.0000000000000000 0.0000000000000000 0.0000000000000000 0.0000000000000000 3.4199501644862935 3.8780937113140692 1.4583168967767797 1.2169125920617985 1245.2105568243014 1245.2105391819466 1.2072209853223443 
-27.151933605023551 -118.60374577300144 99.279641786382726 -27.151933605023569 -118.60374577300138 99.279641786382740 -180.00327175045268 5.7957075761204101e-05 -1.2074093403886722e-06 -4.9809783802461795e-05 0.0000000000000000 -9.1981054256872513e-05 -0.0010926514408626405 0.0013670510782148378 1.1187225600174733 -6.6898413512595511e-08 -1.1914714341385335e-07 1.5648131183771167e-07 0.0000000000000000 -25.913646985361510 -118.01095136745833 110.66456878241424 88.846747377876298 0.0000000000000000 0.0000000000000000 0.0000000000000000 0.0000000000000000 3.5345356131033694 4.1379821137275066 1.6055219357281909 1.2509025739352289 1287.3730155073642 1287.3730032975918 1.2674726103567835 
-38.069586421350600 -112.81332781745159 100.88775933213113 -38.069586421350571 -112.81332781745154 100.88775933213117 -188.48670629702411 -6.2268305168530115e-05 6.5793390859942528e-05 3.7713174649459509e-05 0.0000000000000000 -7.1012811169475832e-05 -0.0024807060853609337 0.0027880148225069980 1.1334737762039131 -2.2766944534551948e-08 -1.6922468963393393e-07 1.0559503584766924e-07 0.0000000000000000 -36.236867317722961 -112.72601430119678 112.03758904139967 95.996160021407249 0.0000000000000000 0.0000000000000000 0.0000000000000000 0.0000000000000000 3.5445200404146382 4.1622122871692833 1.6202491135921147 1.2634835041760710 1324.1330160603391 1324.1330150034698 1.2729385370078221 
-34.934379368867624 -105.01768962242461 93.441713538832857 -34.934379368867639 -105.01768962242464 93.441713538832872 -261.79818479888877 2.1159946239317014e-07 0.00018161706173681373 -8.0369735671116709e-06 0.0000000000000000 -7.5058424307823047e-05 -0.0021500756398443450 0.0030450396021956248 1.3743901457225010 3.3349569090323672e-08 -1.8181472483705844e-07 3.3192668118941701e-07 0.0000000000000000 -33.380789828628046 -105.09637623893835 105.63342596379557 85.433794965156210 0.0000000000000000 0.0000000000000000 0.0000000000000000 0.0000000000000000 3.5061832599640721 4.0683523478525814 1.5632451079751537 1.2392719146414113 1326.3239860207616 1326.3239963476256 1.2502380661193062 
-115.54791418508383 -162.28783412547315 115.14528921465558 -115.54791418508381 -162.28783412547315 115.14528921465558 -802.60189580963561 1.0523064218123367e-05 -3.2768639217664655e-05 -7.1446018721809889e-05 -799.31543675918067 1.6684986725579165e-12 1.1723955140041653e-13 9.7554146094580574e-08 0.85401200884885509 1.8039874312794545e-08 -5.7088095964247949e-08 -3.0282258038587929e-09 0.85501738363087598 -112.21942232800005 -160.66347960400000 124.66427103520003 147.55923210393107 0.0000000000000000 0.0000000000000000 0.0000000000000000 0.0000000000000000 3.3790150977541793 3.7940305726151071 1.4159879968199132 1.1765471853513112 2137.9352326139447 2137.9351713600909 1.1904118244193531 
-102.51704749097402 -159.66649103859635 106.07598714022141 -102.51704749097404 -159.66649103859626 106.07598714022149 -837.10683880288991 -6.9750016412621900e-05 -5.5547073066418837e-05 -0.00013068661093638013 0.0000000000000000 1.4975243267656424e-12 1.0214051826551440e-13 1.0769873526328411e-07 0.81190809289279520 7.0345833869164360e-08 -8.2895811786193951e-08 -6.8926632437524747e-09 0.0000000000000000 -99.532617471171264 -158.09468895943013 116.58484116745363 117.70414803503969 0.0000000000000000 0.0000000000000000 0.0000000000000000 0.0000000000000000 3.3078865428672755 3.6113311111653124 1.3021707709323429 1.1469760177780981 2046.7716193244628 2046.7719595613528 1.1407132657393992 
-107.45743664892838 -150.23775547853947 110.91057998252390 -107.45743664892839 -150.23775547853941 110.91057998252384 -769.65007321422911 -5.6109647828135538e-05 -6.4281541409945268e-05 -5.7242040734793466e-05 0.0000000000000000 1.5574763700954007e-12 9.1926466438962962e-14 1.0229093660996114e-07 0.89752821394866922 2.5121893311968293e-08 -7.0728112891125399e-08 4.7733891449512634e-09 0.0000000000000000 -104.34256255272837 -148.85497981259945 120.89176065121424 119.29379793442074 0.0000000000000000 0.0000000000000000 0.0000000000000000 0.0000000000000000 3.3051390890328300 3.6168741632098866 1.3115545430337425 1.1499756400072201 1934.8345909144684 1934.8345485275572 1.1447149174303020 
-103.54189950067077 -163.94054258465226 115.03701610632234 -103.54189950067077 -163.94054258465226 115.03701610632240 -792.58695632560614 -3.5594040263948132e-05 -8.2144717644467159e-05 -6.5231403844807814e-05 0.0000000000000000 1.5099588246414444e-12 1.1013412404281553e-13 9.7675265209318241e-08 0.81151440214257142 5.7418651540967396e-08 -8.7944047282379564e-08 -1.9821854446569336e-08 0.0000000000000000 -100.53040969477119 -162.28305471776312 124.56781543385799 141.51484144144280 0.0000000000000000 0.0000000000000000 0.0000000000000000 0.0000000000000000 3.3093780991333968 3.6325399695040379 1.3231246348827710 1.1520197607425400 1986.0040386537510 1986.0040367450933 1.1499353349190138 
-80.811862495165215 -150.17903646053048 75.614662788554540 -80.811862495165215 -150.17903646053043 75.614662788554568 -885.47994672296159 -0.00016228729085589376 -0.00012028706122334578 -5.9161226276783394e-05 -889.20664005109040 1.2044254482646011e-12 9.8143715376863838e-14 1.4177166107742778e-07 0.76157758467799141 3.5677611417543007e-08 -1.9917077079385981e-07 2.3437160500004103e-08 0.77865797583002905 -78.400527573600002 -148.79743798799998 89.448228916799977 108.06316173413846 0.0000000000000000 0.0000000000000000 0.0000000000000000 0.0000000000000000 3.3809986357172668 3.7932601022500809 1.4131058202783320 1.1765471853513119 2290.5643878719848 2290.5646598390513 1.1891812255000749 
-82.608126040781514 -164.19727921496602 73.734199785610159 -82.608126040781514 -164.19727921496602 73.734199785610159 -1136.7978191539110 -8.9667815896904448e-05 -0.00020035159743205346 -0.00010961916933698150 -1147.4636744968682 1.2346235145344051e-12 1.3322676295501878e-13 1.4387506652724369e-07 0.37612903418462873 2.4766882620355882e-07 -4.2596815460219646e-07 5.3794526980502001e-08 0.42292968476572762 -80.149363288800018 -162.53464431600008 87.773009718400019 109.57810873427631 0.0000000000000000 0.0000000000000000 0.0000000000000000 0.0000000000000000 3.3835270762970868 3.7965658902902040 1.4136877927307372 1.1765471853513092 2729.2364249909378 2729.2372352755779 1.1895029174717568 
-86.866682603709265 -161.79898754743809 81.816534606075848 -86.866682603709265 -161.79898754743809 81.816534606075905 -1019.8621057939562 -6.0310857905531327e-05 -0.00013457551424296825 -0.00019702173662927851 0.0000000000000000 1.2816969707785120e-12 1.1501910535116622e-13 1.3483447602880005e-07 0.58746079408147489 1.9685014926139048e-07 -3.4913064461989980e-07 -5.7602990359050834e-08 0.0000000000000000 -84.295478612813938 -160.18443337667750 94.973195224810283 106.11323630727971 0.0000000000000000 0.0000000000000000 0.0000000000000000 0.0000000000000000 3.2909887617733586 3.6030703623940599 1.3124139716047274 1.1499922287831723 2342.4045965812920 2342.4034654678380 1.1447882486149299 
-89.104295723261458 -152.82478939720042 79.191291129980385 -89.104295723261444 -152.82478939720033 79.191291129980357 -971.35816036820142 -7.2982186206074960e-05 -0.00017630464565346942 -0.00018507205677948909 0.0000000000000000 1.3154477507271167e-12 1.0036416142611415e-13 1.3777097507272629e-07 0.80594036951526116 1.4445407294360127e-07 -1.8380607399296166e-07 -6.1742688808884031e-08 0.0000000000000000 -86.474010682800568 -151.39014911596544 92.634484883397832 94.367740677547317 0.0000000000000000 0.0000000000000000 0.0000000000000000 0.0000000000000000 3.3228439388389845 3.6708942540535685 1.3486598106422631 1.1560361228272189 2308.7993551572076 2308.7995310073525 1.1613497251256542 
-27.009412905992580 -133.47766606478950 130.83848183179791 -27.009412905992580 -133.47766606478947 130.83848183179791 -423.80423134095770 4.8281671785516667e-05 -4.0847761239517531e-05 0.00019085959703288749 -453.34124912666545 4.9421577941188833e-13 8.1712414612411521e-14 8.0000312152606057e-08 0.88116290469374137 -4.5183578971196689e-08 6.8172120813971379e-09 1.0507466320628266e-07 0.89198354904670063 -26.018656529999991 -132.43089511199997 138.64462455200004 49.421240865332216 0.0000000000000000 0.0000000000000000 0.0000000000000000 0.0000000000000000 3.3527345168273759 3.7308819358567926 1.3787402479321680 1.1861999076933818 1429.5949013353818 1429.6017222989251 1.1743958332034463 
-33.661851645079864 -135.03480158073188 129.66918401265792 -33.661851645079871 -135.03480158073185 129.66918401265789 -396.52199841800024 -2.4154666588412447e-06 3.8331460232883341e-05 9.5810511378797861e-05 -295.54306376879509 5.7914784079571291e-13 9.1482377229112912e-14 8.1308250798883832e-08 0.83582853719108263 -4.8937807960476301e-08 -1.0834740459820085e-07 9.4964005631848774e-08 0.87378899713805647 -32.495446914399992 -133.95681332000001 137.60295016000006 48.530522504776933 0.0000000000000000 0.0000000000000000 0.0000000000000000 0.0000000000000000 3.4305783147022408 3.9070647346160094 1.4777200070353940 1.2139867426317799 1520.3855564323164 1520.3872617051968 1.2153336444073366 
-29.474035140620515 -137.56754150303951 132.70792261190283 -29.474035140620515 -137.56754150303954 132.70792261190283 -423.14665156318165 5.0881162868842121e-05 5.0904731988717441e-05 6.1380603214058414e-05 -447.35739454629106 5.2685633633586804e-13 7.3274719625260344e-14 7.7909231066541906e-08 0.79793302844468494 3.7892656513510776e-08 -1.3196984639036308e-07 -1.8875777356937442e-08 0.78445729359464333 -28.418203856399998 -136.43877710800004 140.31002455199999 44.353383947079159 0.0000000000000000 0.0000000000000000 0.0000000000000000 0.0000000000000000 3.3679647847548746 3.7628232814374640 1.3953373176269326 1.1933739428259356 1456.3826839411483 1456.3829174433024 1.1812027090515609 
-27.779453719620719 -130.48858322270965 136.67973758741431 -27.779453719620729 -130.48858322270965 136.67973758741434 -465.00624740064484 3.0937165373594212e-05 3.6505631525505010e-05 3.1878730273386740e-05 0.0000000000000000 5.0420778663351484e-13 6.0840221749458578e-14 7.3466505767783019e-08 0.85766342483515234 -3.8941060108538283e-08 -8.4144184178034356e-08 3.8711668313596263e-08 0.0000000000000000 -26.768365491316434 -129.50173712462359 143.84833436668455 49.139845408488213 0.0000000000000000 0.0000000000000000 0.0000000000000000 0.0000000000000000 3.3755773322521589 3.7861310255420624 1.4114126342158320 1.1945237061254952 1561.8730480802506 1561.8736744611915 1.1879382183644056 
-41.440552385882725 -65.153076943234865 148.02283014830940 -41.440552385882718 -65.153076943234865 148.02283014830940 -711.61788916767205 -2.1248760090871815e-05 -2.8979392330961202e-06 4.5969103668820503e-05 -719.24098593085853 6.8239858208585247e-13 -1.7985612998927536e-14 6.0778539534567231e-08 1.0620298118451210 1.9166847295933628e-08 -3.2394912814947470e-08 6.9540790965231796e-08 1.0542714326266867 -40.068761925200000 -65.476070995999990 153.95338104800004 156.95717166164070 0.0000000000000000 0.0000000000000000 0.0000000000000000 0.0000000000000000 3.3491492025771872 3.7256823414534299 1.3772044989761025 1.1718076100809536 1924.8099709669075 1926.3124261150542 1.1735711728644855 
-54.133693018550240 -59.213710347543511 142.75870924442762 -54.133693018550240 -59.213710347543504 142.75870924442759 -723.19874716123263 -2.8597118651567969e-05 -4.5621824069828691e-06 3.1383611352912963e-05 -727.51149246613943 8.5026430340917614e-13 -2.9309887850104133e-14 6.6666789422242800e-08 1.1037172501168373 -2.0338125040667643e-08 -2.5038929010850896e-08 8.8674331142985766e-08 1.0990211287175757 -52.426757905599978 -59.655776269200025 149.26381449600007 118.05125250056595 0.0000000000000000 0.0000000000000000 0.0000000000000000 0.0000000000000000 3.3626525689115492 3.7554384231028570 1.3935090083973378 1.1723358563164279 1969.3082337488015 1969.1426524559031 1.1805367610632997 
-36.411934079227180 -65.718103719064686 137.97204351578463 -36.411934079227187 -65.718103719064658 137.97204351578463 -686.24484389493705 -4.2824683597586088e-06 2.1062916466648438e-06 -3.6270910469253946e-07 -686.00858279874342 6.1822769126251852e-13 -1.7985612998927536e-14 7.2020977626152671e-08 1.1111082911489145 2.3061193215331908e-08 -3.8077399676819515e-08 9.2546987178836588e-08 1.0976387235660137 -35.172917262399999 -66.029770167599992 144.99959110400002 155.12084301790807 0.0000000000000000 0.0000000000000000 0.0000000000000000 0.0000000000000000 3.3592753242321929 3.7453358219127164 1.3866400911593133 1.1753894837772463 1899.3500561144381 1899.2953522095061 1.1775635866061225 
-52.065146269561261 -66.289925571182394 134.83334908840806 -52.065146269561261 -66.289925571182422 134.83334908840803 -701.06126985166838 -2.6240688298374533e-05 1.9261866940471567e-05 1.7322411272764276e-05 0.0000000000000000 8.2783779831174808e-13 -1.8651746813702630e-14 7.5531826126962174e-08 1.1401242681310206 1.3832910617420224e-08 -4.9473768795745773e-08 8.5770259200259069e-08 0.0000000000000000 -50.412828244765279 -66.590128188430739 142.20347059834828 136.07757377940416 0.0000000000000000 0.0000000000000000 0.0000000000000000 0.0000000000000000 3.3262390591122730 3.6689119757047357 1.3426670021310512 1.1628319429395564 1859.1591422615240 1859.0917700682687 1.1586432990928719 
-97.409285538504705 -160.30127940936040 62.344975809924598 -97.409285538504705 -160.30127940936038 62.344975809924591 -1369.4218443823318 -3.7534293430976860e-05 -5.8909909542371535e-05 -8.4829353246846525e-05 -1372.2465997152754 1.4269141423994824e-12 1.0569323194431490e-13 1.5661463592664407e-07 0.88140868141613271 3.0089269898799065e-07 -3.6044227690557019e-07 1.6367699075257451e-07 0.89524973837390054 -94.559718839999974 -158.71675115199997 77.626866652000004 109.98746742214213 0.0000000000000000 0.0000000000000000 0.0000000000000000 0.0000000000000000 3.3548048662965848 3.7367898955029735 1.3825785261660892 1.1765471853513103 3080.3096874807134 3080.3096776655175 1.1758126541236076 
-92.399427879346860 -160.04581186377612 67.745954734436310 -92.399427879346845 -160.04581186377615 67.745954734436296 -1258.4706262092980 -0.00013739984985946003 -0.00013463927587727083 -0.00017240499205616725 -1226.3188955145301 1.3576362256628727e-12 1.0080825063596420e-13 1.5057330671197633e-07 0.71258656411257570 3.3434969741179437e-07 -4.3466159330521557e-07 1.2275054533131162e-07 0.69126838386482581 -89.682139475999989 -158.46640519600001 82.438353807199988 112.88451412247700 0.0000000000000000 0.0000000000000000 0.0000000000000000 0.0000000000000000 3.3597715321506310 3.7458335101706912 1.3866015675873260 1.1765471853513101 2879.8644649734197 2879.8643809105774 1.1774577356978715 
-105.78046253228382 -156.45138456846342 72.427562718780592 -105.78046253228378 -156.45138456846334 72.427562718780578 -1238.2576409185031 -3.4309762777065441e-05 -3.2763778777689788e-05 -0.00018592275892896900 0.0000000000000000 1.5339396419733475e-12 1.2212453270876722e-13 1.4533662451299278e-07 1.0512191429651763 2.1263995792736524e-07 -3.3588859676895876e-07 1.4521457234994478e-07 0.0000000000000000 -102.70986659571734 -154.94403864466588 86.608986019839278 111.02505284862640 0.0000000000000000 0.0000000000000000 0.0000000000000000 0.0000000000000000 3.3620470144402259 3.7526331057465825 1.3911915033706783 1.1719952972154848 2876.9127542662081 2876.9127832903037 1.1796420554626372 
-103.41520940773495 -168.93145856499274 69.128583593587905 -103.41520940773491 -168.93145856499271 69.128583593587848 -1326.2757789448508 -1.7913838189776358e-05 -4.2621358064329906e-05 -0.00018017834071805327 0.0000000000000000 1.5010770404444427e-12 1.1857181902996672e-13 1.4902674294603460e-07 0.68155522093794274 2.6533106453982585e-07 -3.3589488936701681e-07 1.9398782900263463e-08 0.0000000000000000 -100.40706467681501 -167.17391327890167 83.670075146830683 105.53983917324770 0.0000000000000000 0.0000000000000000 0.0000000000000000 0.0000000000000000 3.3554746788287462 3.7382784544921930 1.3833960692095411 1.1728543222681307 2997.2685582171966 2997.2685466001035 1.1761954962699579 
-118.01776711861147 -100.18517767112063 83.611517269267438 -118.01776711861150 -100.18517767112061 83.611517269267452 -988.49268361702752 -3.1360944842394981e-05 -4.6940172667477526e-05 -0.00013483402113516251 -1004.0198500080437 1.6896497096152452e-12 2.1316282072803009e-14 1.3282666699865328e-07 2.1627120242579720 -9.6025212542918816e-09 -2.2558453417237432e-07 4.5532322097778594e-07 2.1803525468042375 -114.62406224400000 -99.805851428000011 96.572263865600007 85.211636250682801 0.0000000000000000 0.0000000000000000 0.0000000000000000 0.0000000000000000 3.3686863014689759 3.7630306593488405 1.3943372238764744 1.1606028650990716 2434.7026076116267 2434.7026076209218 1.1807181972377927 
-114.38535830869230 -91.298815249713925 87.707589140450324 -114.38535830869229 -91.298815249713925 87.707589140450324 -920.26032192420985 -1.2884912575092973e-05 -2.1636845144566173e-06 -0.00014385857177646362 -911.08155226218162 1.6449619444358632e-12 1.8429702208777599e-14 1.2824494532992503e-07 2.1362159509347634 -1.2448124380980764e-08 -1.6638337711695617e-07 6.1332375660667719e-07 2.0978453556632854 -111.08756211600000 -91.097641973600034 100.22126851279998 99.535403830130534 0.0000000000000000 0.0000000000000000 0.0000000000000000 0.0000000000000000 3.3874601428225124 3.8081321416516736 1.4216151015202134 1.1698154217370795 2351.0054646162130 2351.0054645621271 1.1926268557758488 
-116.25141486201011 -97.991145375804422 96.873554496225196 -116.25141486201007 -97.991145375804450 96.873554496225168 -825.26532394399612 -1.3788956679193090e-05 -1.1176090400568671e-05 -0.00013202580967185392 -824.22218635100228 1.6738277430761173e-12 1.8207657603852567e-14 1.1799224708397561e-07 1.7153954275995715 -2.9927247100299841e-08 -1.7671458762560193e-07 3.2590541351852543e-07 1.6856284829337640 -112.90434805199999 -97.655804887999992 108.38681131359999 128.09762094244454 0.0000000000000000 0.0000000000000000 0.0000000000000000 0.0000000000000000 3.3612308562382940 3.7544323516781408 1.3939688636828376 1.1703569954675903 2152.6580244633233 2152.6580244937932 1.1806867842230768 
-110.34580369406729 -104.30308293187831 88.076781240935205 -110.34580369406736 -104.30308293187831 88.076781240935219 -904.76738864883612 -0.00015588136455833290 -1.4478479134150532e-05 -0.00015110530935499370 0.0000000000000000 1.5992207558213069e-12 3.1974423109204508e-14 1.2783199210275598e-07 1.8744980678602088 2.6042095651833215e-07 -1.8134817920249228e-07 4.4212518161540903e-07 0.0000000000000000 -107.15466629968294 -103.84120130723400 100.55016500991876 102.24201981555134 0.0000000000000000 0.0000000000000000 0.0000000000000000 0.0000000000000000 3.3118701470693241 3.6267648347633039 1.3142876504073435 1.1457058214450222 2169.2174003208270 2169.2174002712495 1.1460525423100765 
-28.022949869756346 -115.89829555524251 90.838940822396751 -28.022949869756339 -115.89829555524248 90.838940822396737 -232.79785265081358 0.00010730450990705731 3.7070004863844966e-05 -0.00013398157989958270 0.0000000000000000 -0.00020120696575271342 -0.0012885696827142979 0.0018886302133936711 1.2443998800870781 -3.4413897817956506e-08 -2.1030849393902871e-07 2.1410456114394085e-07 0.0000000000000000 -26.889884864405381 -115.37486796036181 103.37575244326078 96.382960025775517 0.0000000000000000 0.0000000000000000 0.0000000000000000 0.0000000000000000 3.4823241593178831 4.0207914060082715 1.5399075336813794 1.2390373024143186 1280.4326454465220 1280.4326478455866 1.2408497691937228 
-112.82492941491152 -104.07916592124917 146.05176656739798 -112.82492941491154 -104.07916592124913 146.05176656739792 -728.16601624738576 2.4889130456654890e-06 8.3263580305412930e-06 1.0578290625707617e-06 -731.65101511196542 1.6245338407827601e-12 3.1086244689504383e-14 6.2983296800211974e-08 0.97833805522718253 -3.9087523365511253e-09 -3.3238148442958418e-08 3.2293529505432477e-08 0.97876204267770450 -109.56833416800004 -103.62177336400003 152.19744990400002 70.302883591683823 0.0000000000000000 0.0000000000000000 0.0000000000000000 0.0000000000000000 3.3445120087199403 3.7115125524725325 1.3673760462861926 1.1699101445011846 1942.8612733533473 1942.8612733397022 1.1693931153298716 