# For a description of the Tecplot format see the Tecplot User's guide.
#
Variables=x,y,z,s_u,s_v,s_w,s_p,mono_f_vel_u,mono_f_vel_v,mono_f_vel_w,const,u_nu,v_nu,w_nu,p_nu,x_nu,y_nu,z_nu,const,u_ref,v_ref,w_ref,vol_ref,x_ref,y_ref,z_ref,const,I1,I2,I3,J,p1,p2,p3
Zone f=fepoint, n=3174, e=16683, et=brick, c=black
-25.5031 -155.094 105.581 -25.503062712712047 -155.09395686424253 105.58134263691265 -324.42829590671568 -3.4475568269893000e-05 -0.00013287994572572091 -0.00014054372146787229 -307.49478925449671 4.1253069898994355e-07 2.8123470263707873e-07 0.00032093668311183876 0.076084606742561206 3.0208705116391565e-09 9.9209373415532111e-09 3.9182813741253647e-09 0.075888918053787599 -24.903554063199991 -154.16086777200002 112.24023381839994 89.724962256112903 0.0000000000000000 0.0000000000000000 0.0000000000000000 0.0000000000000000 3.2220188539797920 3.4522345762026538 1.2301325659517710 1.1114686338094391 988.92058539194886 988.33577834684206 1.1089871693144171 
-38.304268012294443 -156.48838747779621 108.31578438948081 -38.304268012294422 -156.48838747779612 108.31578438948085 -265.14247713915353 0.00010838371972066434 -0.00010388467963441285 -6.9328884985984666e-05 0.0000000000000000 6.4971822784204059e-06 6.9137849109044035e-05 0.00033796013327220924 0.074031181318768943 -7.2173036381689534e-09 6.7005901466968726e-09 1.7821860742734825e-09 0.0000000000000000 -37.438273663334591 -155.10473791080037 114.93291110338620 89.036758072416930 0.0000000000000000 0.0000000000000000 0.0000000000000000 0.0000000000000000 3.2953019705643949 3.6142306471082857 1.3193842250825509 1.1406636187458172 1027.8882293287131 1028.1999373802528 1.1487890177508151 
-32.254506514117239 -148.73175425605706 113.76558550948177 -32.254506514117232 -148.73175425605712 113.76558550948177 -224.77132750265719 3.2463338568913083e-05 -7.2948611512822306e-05 -2.9117237305655655e-05 0.0000000000000000 4.8985984757443646e-07 2.5699961869740662e-07 0.00029379590209721590 0.072816934424707311 -2.6327082665086006e-09 5.6932292712933747e-09 -7.6956082190283812e-10 0.0000000000000000 -31.542619574254449 -147.87907313389167 119.86135157363466 98.260374494724786 0.0000000000000000 0.0000000000000000 0.0000000000000000 0.0000000000000000 3.2493687770741384 3.5137185065274106 1.2645000932388373 1.1273526990724345 896.56070045155161 896.54275889042685 1.1243346705307031 
-29.310540176220091 -143.75719227512781 105.45707972194096 -29.310540176220108 -143.75719227512775 105.45707972194091 -224.08217307067568 3.5013662796064091e-05 -9.9108655028821332e-05 -5.8712235457567055e-05 0.0000000000000000 4.5614047905484517e-07 2.3805034521373611e-07 0.00032134876675371510 0.072326378386386489 -2.5685731837381058e-09 8.5840849979917162e-09 4.1681434671916966e-09 0.0000000000000000 -28.647655777685479 -142.96738158566356 112.12452093910819 112.69127588814607 0.0000000000000000 0.0000000000000000 0.0000000000000000 0.0000000000000000 3.2608740959161979 3.5395003266671234 1.2789487533612305 1.1279991375081575 908.72621848677500 908.95846186440770 1.1309123134002954 
-24.850507007064468 -201.95752867724656 64.221875273615808 -24.850507007064468 -201.95752867724653 64.221875273615808 -1008.1668918375094 7.1071886310321096e-06 7.5616778048151469e-07 4.4132753065220787e-06 -1013.6333236644898 4.0505650755751077e-07 4.5974893669864514e-07 0.00045809393319906633 0.10789590820151082 -1.8297345859222612e-10 -2.8130520115523373e-10 -3.8866162763674613e-10 0.10794792800857721 -24.261860196399997 -200.43215969199997 73.726546483199982 142.71380061529433 0.0000000000000000 0.0000000000000000 0.0000000000000000 0.0000000000000000 3.2134073703304433 3.4369148841375283 1.2236430919906596 1.1060462829130477 2189.1470691681884 2184.3021649151492 1.1061845929605152 
-24.744276356284761 -189.00069320994692 65.922203852668048 -24.744276356284761 -189.00069320994689 65.922203852668062 -990.87195047219848 2.4170744999224594e-05 -3.1919513771692511e-05 -1.0136643180890709e-05 -997.43921766672588 4.0383977284452754e-07 4.1039332643322268e-07 0.00045245526309933837 0.10707933215309928 -1.5530329565542856e-09 2.0044626403396868e-09 1.2560245754943781e-09 0.10754081496143522 -24.157397762799999 -187.63907770800003 75.309882232799993 165.73632395326644 0.0000000000000000 0.0000000000000000 0.0000000000000000 0.0000000000000000 3.2134512374525448 3.4369333157760673 1.2236149750626968 1.1060462829130475 2160.2701055363732 2157.9971978077092 1.1061686962628967 
-35.654014275664323 -196.87243048909400 72.673532761917087 -35.654014275664323 -196.87243048909392 72.673532761917116 -980.43358044707907 1.1581325055810756e-05 -2.4960844245653836e-05 -4.8687985905362093e-05 0.0000000000000000 5.2879686307516494e-07 4.4037860558177044e-07 0.00043006634546927103 0.10717209650262942 -8.7570527569233499e-10 3.1864708407320144e-09 -2.3578849250647819e-10 0.0000000000000000 -34.885542273181727 -195.41132893576267 81.596679120775832 139.46796289390394 0.0000000000000000 0.0000000000000000 0.0000000000000000 0.0000000000000000 3.2114676067602548 3.4329207623110536 1.2215888979558118 1.1040986521824740 2138.5387319779779 2142.2118894754535 1.1052530183813969 
-19.319178390406350 -195.97951656449237 72.476233246740023 -19.319178390406361 -195.97951656449246 72.476233246740037 -1000.0544240084570 1.2339740358141230e-05 -1.6113137543189958e-05 -2.2878789886860648e-05 0.0000000000000000 3.4170221407947565e-07 4.3697729434910565e-07 0.00043072063482263445 0.10736337944946607 -7.4675092685301177e-10 1.7920187607427081e-09 1.6688875859323540e-10 0.0000000000000000 -18.822600960987238 -194.52970000168264 81.412954998504986 111.95285379220412 0.0000000000000000 0.0000000000000000 0.0000000000000000 0.0000000000000000 3.2138114883674125 3.4377060861511946 1.2240296501722698 1.1060462829130489 2185.1175316673380 2185.4826599348230 1.1063611723988087 
-23.225581883654286 -103.48879247572516 31.481259095006681 -23.225581883654286 -103.48879247572516 31.481259095006685 -956.58328544609037 -3.1032261064820969e-05 3.7081181679167424e-05 -5.0702083597338528e-05 -967.34934425918459 3.8644506888951824e-07 8.4658675847393283e-08 0.00056666914384706502 0.11236809853544368 8.2739979624697568e-10 -4.4425315366742238e-09 6.2028899057835251e-09 0.11391710999191283 -22.663982073999996 -103.20790935200000 43.238681550399988 69.202643319072678 0.0000000000000000 0.0000000000000000 0.0000000000000000 0.0000000000000000 3.2129853223935458 3.4360198057719842 1.2231690923273195 1.1060462829130477 2101.4193342979215 2099.4974046149114 1.1059716143547258 
-30.840003110621986 -111.15082579965352 35.508426895390727 -30.840003110621982 -111.15082579965353 35.508426895390720 -929.71698765969495 2.1371697611460284e-06 5.7640455078085455e-05 -6.8746956836409417e-05 -921.99035663919267 4.7365852140490722e-07 1.1384513354251169e-07 0.00055331415413384377 0.10987874138559410 3.0182503500188110e-09 -6.1489834077131613e-09 6.8447245842241612e-09 0.11034143707542972 -30.151660686400003 -110.77310694400001 46.988755992800002 74.715282964229786 0.0000000000000000 0.0000000000000000 0.0000000000000000 0.0000000000000000 3.2140150180967217 3.4381163650790110 1.2242360778064063 1.1060462829130475 2050.0728092634304 2044.9132937598190 1.1064571381318520 
-19.230247481749437 -103.85252847961316 38.751213415612781 -19.230247481749441 -103.85252847961313 38.751213415612774 -909.88548908539451 -3.8103384925940519e-05 3.0141402743690528e-05 -7.2800903590077023e-05 -911.94817888026284 3.4068362564365628e-07 8.6044228186921132e-08 0.00054256034829158750 0.10808394936205873 2.0152013501865386e-09 -5.1493618387374709e-09 6.4412385053291627e-09 0.10838724513784469 -18.735150314000002 -103.56704831999998 50.008419303199993 79.719497061372692 0.0000000000000000 0.0000000000000000 0.0000000000000000 0.0000000000000000 3.2130751873177696 3.4361975155383244 1.2232568008635911 1.1060462829130484 2017.8417356865732 2018.4548874391885 1.1060094725597251 
-26.101346357980944 -98.708051459500595 39.796987626405823 -26.101346357980940 -98.708051459500581 39.796987626405809 -923.29182274955338 1.9907706883317960e-06 1.3266379836491149e-05 -0.00011270831977204041 0.0000000000000000 4.1938327033363970e-07 6.6447722213425209e-08 0.00053909232696369713 0.11000295615701240 1.1780545899492263e-09 -3.3346916127795181e-09 6.8358240682197103e-09 0.0000000000000000 -25.491879232152165 -98.487589184379729 50.982237960580505 72.292163684038698 0.0000000000000000 0.0000000000000000 0.0000000000000000 0.0000000000000000 3.2128991258698441 3.4358875930477093 1.2231244503279128 1.1060462829130480 2038.5968479392247 2037.1399811632195 1.1059469416286445 
-26.028604230837825 -104.41340556501105 101.79243146567113 -26.028604230837807 -104.41340556501108 101.79243146567113 -212.20659638897794 3.1971484326945197e-05 0.00010619191432847509 -9.4526356077339973e-06 0.0000000000000000 6.8000829217909379e-06 -1.6970789989533644e-05 0.00034455984651396725 0.073220774642650616 -3.9339840068833319e-09 -1.1550098861712356e-08 4.3805927442708889e-09 0.0000000000000000 -25.283559732051039 -104.23282252886388 108.75695162467670 96.378087069502698 0.0000000000000000 0.0000000000000000 0.0000000000000000 0.0000000000000000 3.2518862964514299 3.5175713407470650 1.2656993940577974 1.1310187780577536 854.90975218603739 854.90978623726210 1.1248717940806967 
-26.693086246461583 -118.36987452556656 103.79515822289311 -26.693086246461579 -118.36987452556652 103.79515822289306 -147.39753360470266 4.2372411438206787e-05 2.8018016220156906e-06 -3.5868477251720575e-05 0.0000000000000000 1.3188003206425380e-05 -1.1460603993897083e-05 0.00034091757198073143 0.068801406731856585 -5.8496787755251423e-09 -7.4730229802048245e-10 4.2493426335009907e-09 0.0000000000000000 -25.913646985361510 -118.01095136745833 110.66456878241424 88.846747377876298 0.0000000000000000 0.0000000000000000 0.0000000000000000 0.0000000000000000 3.3251664858400107 3.6763294753490880 1.3516452276045492 1.1523984954043036 877.92476279966547 877.92406378518706 1.1627652645698661 
-37.396009015710298 -112.75813973304095 105.31823333045277 -37.396009015710298 -112.75813973304095 105.31823333045271 -152.84820783139247 -3.7650939420411721e-05 5.0539266352809639e-05 3.0509137289247644e-05 0.0000000000000000 3.2920754331516050e-05 -3.8932061066514976e-05 0.00033658044727935896 0.069262614461887820 3.4930515837613433e-09 -8.4558246624764058e-09 -3.9494634464717744e-09 0.0000000000000000 -36.236867317722961 -112.72601430119678 112.03758904139967 95.996160021407249 0.0000000000000000 0.0000000000000000 0.0000000000000000 0.0000000000000000 3.3322012147227711 3.6920846752565657 1.3604824813933714 1.1603320398016927 902.79537817130756 902.79519680453097 1.1664190825856449 
-34.363561764738023 -105.02919775373391 98.270240877821678 -34.363561764738044 -105.02919775373398 98.270240877821706 -206.71336188538979 7.2622577323472557e-07 0.00011982402349108367 -1.2510828502777789e-05 0.0000000000000000 1.7918289306101157e-05 -4.8077455252227735e-05 0.00038794279555417696 0.073825251064488631 -2.4001699073884380e-09 -1.2618535417020802e-08 5.1976834101962613e-09 0.0000000000000000 -33.380789828628046 -105.09637623893835 105.63342596379557 85.433794965156210 0.0000000000000000 0.0000000000000000 0.0000000000000000 0.0000000000000000 3.3042425143527927 3.6289473285983109 1.3249268817820770 1.1445158898018855 909.66465014600885 909.66482076571185 1.1510282118088666 
-114.29691127153839 -161.67980316150803 118.92339314784834 -114.29691127153841 -161.67980316150803 118.92339314784839 -566.87678678246141 6.1920061961967101e-06 -1.9367777509070377e-05 -4.5088678952235355e-05 -564.68131536944827 1.4295506270967095e-06 3.0632172487443654e-07 0.00027669145764974701 0.080921097935615041 -3.8667661746130245e-10 1.2777988862503546e-09 9.7099715151858571e-10 0.080932615795782675 -112.21942232800005 -160.66347960400000 124.66427103520003 147.55923210393107 0.0000000000000000 0.0000000000000000 0.0000000000000000 0.0000000000000000 3.2280347124619619 3.4694250377118077 1.2416126695361009 1.1060462829130493 1449.8097821094671 1449.7387369157238 1.1144567732624167 
-101.39535910766014 -159.07813158828921 110.24697343709029 -101.39535910766016 -159.07813158828918 110.24697343709025 -588.18726441178842 -4.1616244202889229e-05 -3.2831832451286192e-05 -8.4261719073631339e-05 0.0000000000000000 1.2817798452635645e-06 2.9641134702274035e-07 0.00030546440719625423 0.081162218462870681 3.0808218588944422e-09 1.8914055615696148e-09 6.6104709422191369e-10 0.0000000000000000 -99.532617471171264 -158.09468895943013 116.58484116745363 117.70414803503969 0.0000000000000000 0.0000000000000000 0.0000000000000000 0.0000000000000000 3.1789746842052389 3.3558799018715932 1.1766130019561662 1.0884595524474576 1384.8469306494851 1384.9269683971791 1.0845606372243852 
-106.28672128083144 -149.72015269540651 114.87213161201636 -106.28672128083144 -149.72015269540645 114.87213161201636 -546.63779556700058 -3.4663885671018963e-05 -3.7631143519191505e-05 -3.7788618308777189e-05 0.0000000000000000 1.3378041426870269e-06 2.6076464942903499e-07 0.00029012634757030753 0.080146761328859326 2.4854333055528291e-09 2.4198164021745066e-09 -3.0822965003394617e-10 0.0000000000000000 -104.34256255272837 -148.85497981259945 120.89176065121424 119.29379793442074 0.0000000000000000 0.0000000000000000 0.0000000000000000 0.0000000000000000 3.1793206794155728 3.3608471087619884 1.1814838222423949 1.0900874261674949 1317.1053719885031 1317.2387855913182 1.0867632183147296 
-102.41004078415482 -163.32010909421501 118.81981043292967 -102.41004078415475 -163.32010909421487 118.81981043292960 -559.88290605953978 -2.2002069402556314e-05 -4.9633577324780895e-05 -4.1229840224828557e-05 0.0000000000000000 1.2934017260546327e-06 3.1257002897078223e-07 0.00027703496110476072 0.080586343079734973 1.8401398747961349e-09 3.3237134494212537e-09 1.2028736538222478e-10 0.0000000000000000 -100.53040969477119 -162.28305471776312 124.56781543385799 141.51484144144280 0.0000000000000000 0.0000000000000000 0.0000000000000000 0.0000000000000000 3.1829672717770920 3.3708142503863310 1.1878363305098705 1.0913029581663303 1347.8285440821753 1347.8109889219561 1.0897481309851207 
-79.905570053442119 -149.66187432630403 81.105234320733103 -79.905570053442133 -149.66187432630406 81.105234320733089 -614.89371753104717 -0.00010100851953878124 -7.3518480713308660e-05 -3.5544903047007504e-05 -616.40142787138677 1.0356418153056879e-06 2.6054266055730579e-07 0.00040210493608050518 0.088894048350105226 6.7383637173407114e-09 8.3670609462236460e-09 3.9710138956344120e-09 0.089302322251809660 -78.400527573600002 -148.79743798799998 89.448228916799977 108.06316173413846 0.0000000000000000 0.0000000000000000 0.0000000000000000 0.0000000000000000 3.2277983898046685 3.4671521558701213 1.2395466674236089 1.1060462829130482 1536.3548708647863 1536.2502939993244 1.1135085633733497 
-81.684008002187070 -163.57491907930822 79.306233016091269 -81.684008002187070 -163.57491907930822 79.306233016091269 -773.55300221474272 -5.7380142451523562e-05 -0.00012176746401557065 -6.6063381734633508e-05 -779.44536041526089 1.0560115458746466e-06 3.1354066321043206e-07 0.00040807082701554975 0.096684714331537108 -1.6112474613134251e-09 1.0872560312430102e-08 5.4030351554653288e-09 0.098758446625235072 -80.149363288800018 -162.53464431600008 87.773009718400019 109.57810873427631 0.0000000000000000 0.0000000000000000 0.0000000000000000 0.0000000000000000 3.2296163571134140 3.4701597641777351 1.2406926535464489 1.1060462829130477 1815.1056307296819 1815.0350260087071 1.1140696558900347 
-85.900303888651280 -161.19462506631467 87.038440915849648 -85.900303888651266 -161.19462506631467 87.038440915849620 -700.37516175786993 -3.9763881307693448e-05 -8.2854238917806793e-05 -0.00012153642812295654 0.0000000000000000 1.1043038160574170e-06 3.0447356902385536e-07 0.00038242909514174528 0.092960009126318008 4.5637514561191940e-09 4.0174771674845240e-09 3.8075715737146014e-09 0.0000000000000000 -84.295478612813938 -160.18443337667750 94.973195224810283 106.11323630727971 0.0000000000000000 0.0000000000000000 0.0000000000000000 0.0000000000000000 3.1738795658687127 3.3553373068785719 1.1815282895910781 1.0900953709568630 1569.6351583979535 1569.8259905999464 1.0866868633561984 
-88.115711586554440 -152.28777256890891 84.526923044398131 -88.115711586554440 -152.28777256890896 84.526923044398188 -670.20595593660960 -4.6539176333998783e-05 -0.00010787797486089533 -0.00011582228585010558 0.0000000000000000 1.1296784839798235e-06 2.7054531126502468e-07 0.00039075785049469408 0.090718360991543026 2.4111653264131833e-09 7.5724719404401320e-09 1.6646845955227155e-09 0.0000000000000000 -86.474010682800568 -151.39014911596544 92.634484883397832 94.367740677547317 0.0000000000000000 0.0000000000000000 0.0000000000000000 0.0000000000000000 3.1936722211143489 3.3965879786708659 1.2030534300159337 1.0937675488195751 1549.8712356193894 1550.1167309911043 1.0968412322150958 
-26.637040322192320 -133.08583709946112 133.93675631853003 -26.637040322192320 -133.08583709946109 133.93675631853006 -313.92639600303954 3.2361211703960464e-05 -2.7610548334118886e-05 0.00012686994325279696 -334.18670919600311 4.2551896162201786e-07 1.9740068335494243e-07 0.00022690378534839795 0.078948100370627619 -6.9713395100701492e-10 4.7328126932490452e-10 -6.7029257023562744e-09 0.078830586954409129 -26.018656529999991 -132.43089511199997 138.64462455200004 49.421240865332216 0.0000000000000000 0.0000000000000000 0.0000000000000000 0.0000000000000000 3.2109035889565072 3.4312134651558091 1.2204475168598461 1.1122147148464814 976.36547380319405 976.36652285135858 1.1048232717356561 
-33.223462194509864 -134.63128730312118 132.81811250641888 -33.223462194509878 -134.63128730312113 132.81811250641888 -296.02017443400104 -2.2918040047323421e-06 2.3666832712239647e-05 6.7118555249879417e-05 -231.93487476013152 5.0095799486449266e-07 2.0328764982480149e-07 0.00023061345860320157 0.078938117482717993 1.1887862649200790e-09 -7.6950168584709989e-10 -3.3578303918950895e-09 0.084727246332552839 -32.495446914399992 -133.95681332000001 137.60295016000006 48.530522504776933 0.0000000000000000 0.0000000000000000 0.0000000000000000 0.0000000000000000 3.2601715924646579 3.5373227529275213 1.2774324944984352 1.1295362311672286 1039.1327438856567 1039.1329666243112 1.1301008682847220 
-29.077204362752994 -137.14502062220188 135.72521288326621 -29.077204362752983 -137.14502062220188 135.72521288326624 -314.59344910519724 3.5929325542809480e-05 3.0120130302962115e-05 4.0407548390619591e-05 -332.02764708863288 4.5346791599509817e-07 2.1286306428613952e-07 0.00022097286314348710 0.079452136485591449 3.1234331008227149e-11 -3.5403854348213894e-09 -1.7336059016738100e-09 0.079254701205606043 -28.418203856399998 -136.43877710800004 140.31002455199999 44.353383947079159 0.0000000000000000 0.0000000000000000 0.0000000000000000 0.0000000000000000 3.2206691774571841 3.4512954720798423 1.2307362404802764 1.1169244720617255 997.77185196327457 997.77831632546611 1.1093555677935021 
-27.399439474800438 -130.11918542415501 139.52496874740882 -27.399439474800442 -130.11918542415503 139.52496874740882 -341.89962207517220 1.8567558102603222e-05 2.2439982543537325e-05 2.2580069057171135e-05 0.0000000000000000 4.3425126633467320e-07 1.8610001140118018e-07 0.00020837202229095911 0.080406626446426321 -9.2141114266369969e-11 -9.5649949787589014e-10 3.6251846707936703e-10 0.0000000000000000 -26.768365491316434 -129.50173712462359 143.84833436668455 49.139845408488213 0.0000000000000000 0.0000000000000000 0.0000000000000000 0.0000000000000000 3.2257111509495355 3.4643658474005763 1.2388511199415655 1.1175210119370440 1065.5712452547073 1065.5700324031520 1.1129963299067298 
-40.924969372081556 -65.273980589982912 150.37667829116043 -40.924969372081556 -65.273980589982912 150.37667829116043 -508.27547596682211 -1.4664607405251319e-05 -1.5146346399296723e-06 2.8845342324558941e-05 -513.11793187464059 5.8916890766091967e-07 -6.0910410493164591e-08 0.00017238532483077051 0.081370861006960754 -1.3050140659836473e-10 -3.5755716229038719e-10 -2.2217039161192502e-10 0.081594936036136129 -40.068761925200000 -65.476070995999990 153.95338104800004 156.95717166164070 0.0000000000000000 0.0000000000000000 0.0000000000000000 0.0000000000000000 3.2085860054383115 3.4272390046783965 1.2188066875644679 1.1031466136842007 1310.4891091983120 1310.4830799223932 1.1040058889463198 
-53.492146969702574 -59.379185165342008 145.34059921965115 -53.492146969702581 -59.379185165342015 145.34059921965121 -516.45239629742605 -1.7841688763096874e-05 -3.4515764598341301e-06 2.0583449198704884e-05 -519.03585080960886 7.3310984805008427e-07 -8.3365053082928853e-08 0.00018908609011170086 0.081255313582878047 5.2191661778695999e-10 -5.2332806050145533e-10 2.8979345322080210e-10 0.081530485850629136 -52.426757905599978 -59.655776269200025 149.26381449600007 118.05125250056595 0.0000000000000000 0.0000000000000000 0.0000000000000000 0.0000000000000000 3.2173086568197697 3.4457547112126830 1.2286121413025113 1.1035292865777406 1341.5990980407425 1341.6092470953031 1.1084530736007632 
-35.946253610613809 -65.834767199009107 140.76129195477552 -35.946253610613795 -65.834767199009107 140.76129195477552 -491.68074515462717 -3.5357314520335557e-06 1.9211832141804919e-06 3.5537958293915018e-07 -491.42886832241828 5.3214408957114046e-07 -5.8774244804382654e-08 0.00020427209786078038 0.081373360241409259 -1.5980296056960914e-10 1.2813799523488044e-10 3.7047150083265823e-10 0.081544940274774533 -35.172917262399999 -66.029770167599992 144.99959110400002 155.12084301790807 0.0000000000000000 0.0000000000000000 0.0000000000000000 0.0000000000000000 3.2150885173902233 3.4400643085812281 1.2251086768454957 1.1054613806189182 1295.1229988521211 1295.1221372755572 1.1068493123678187 
-51.444127876884643 -66.402297891594827 137.75856583845132 -51.444127876884664 -66.402297891594813 137.75856583845140 -501.98287537545502 -1.6998501881345733e-05 1.1230082024514526e-05 1.1872747457668885e-05 0.0000000000000000 7.0965240628328985e-07 -5.6612385224141804e-08 0.00021422980965546401 0.081152482468344000 4.3129046805964991e-10 -1.1215750208712750e-09 4.0464639541403705e-10 0.0000000000000000 -50.412828244765279 -66.590128188430739 142.20347059834828 136.07757377940416 0.0000000000000000 0.0000000000000000 0.0000000000000000 0.0000000000000000 3.1940301870608407 3.3940126435414544 1.1999779782854068 1.0978606191803399 1269.5085973022431 1269.5072385745889 1.0953990501661759 
-96.338285098895810 -159.70815627582235 68.410390471444103 -96.338285098895781 -159.70815627582235 68.410390471444103 -920.92042212196907 -2.4172228275276430e-05 -3.6088672961224111e-05 -5.1552430921989881e-05 -921.82175760033408 1.2238575336498412e-06 2.9881125440667239e-07 0.00044420387940924400 0.099676756016348012 -9.2487302920865811e-10 2.6088248137056680e-09 3.0421949641880630e-09 0.10104098020251250 -94.559718839999974 -158.71675115199997 77.626866652000004 109.98746742214213 0.0000000000000000 0.0000000000000000 0.0000000000000000 0.0000000000000000 3.2122331146078973 3.4344756896164692 1.2223778754335621 1.1060462829130482 2036.5668977528728 2040.7924124423337 1.1056049787842785 
-91.378143809717685 -159.45460585178438 73.577398871144581 -91.378143809717656 -159.45460585178441 73.577398871144595 -851.19630794615773 -8.7428227974899474e-05 -8.2605502542802009e-05 -0.00010481056487750207 -829.27765897125221 1.1670454634904459e-06 2.9784542654454071e-07 0.00042706892316068951 0.097713882968278348 2.0568465519126710e-10 5.4140488499769072e-09 7.0366536202515999e-09 0.098913443190827260 -89.682139475999989 -158.46640519600001 82.438353807199988 112.88451412247700 0.0000000000000000 0.0000000000000000 0.0000000000000000 0.0000000000000000 3.2148239602999524 3.4393188898747904 1.2246180164240241 1.1060462829130482 1910.4222404819184 1909.1987689781924 1.1065948322624484 
-104.62638896746790 -155.88715244859077 78.056199495495989 -104.62638896746786 -155.88715244859080 78.056199495495989 -839.20565954060976 -2.0595932451938564e-05 -1.9821380164796821e-05 -0.00011698049161544361 0.0000000000000000 1.3187871669151361e-06 2.8425618525673718e-07 0.00041221621793141589 0.095774008704553409 1.5705790131084971e-09 1.8296780563209495e-09 2.8189344700732259e-09 0.0000000000000000 -102.70986659571734 -154.94403864466588 86.608986019839278 111.02505284862640 0.0000000000000000 0.0000000000000000 0.0000000000000000 0.0000000000000000 3.2166893589866281 3.4438944025542644 1.2273435579502767 1.1033356521750393 1910.2027220816597 1903.8598528983273 1.1079126403345898 
-102.28460792684557 -168.27357142250790 74.900132217961058 -102.28460792684561 -168.27357142250790 74.900132217961058 -894.15085756800067 -1.1159820816309948e-05 -2.5408140260446179e-05 -0.00011259713025703028 0.0000000000000000 1.2919650630438539e-06 3.3143891409181947e-07 0.00042268244335730293 0.099104672545001160 -6.6251408014876691e-11 2.8988978781537606e-09 8.3626386383843092e-10 0.0000000000000000 -100.40706467681501 -167.17391327890167 83.670075146830683 105.53983917324770 0.0000000000000000 0.0000000000000000 0.0000000000000000 0.0000000000000000 3.2126968659913286 3.4354621921012263 1.2229005178581687 1.1038481703616021 1985.1283080511491 1985.0859604843042 1.1058551772007912 
-116.74225410306457 -100.04318766942275 88.755664890921196 -116.74225410306461 -100.04318766942274 88.755664890921224 -684.59514302022774 -1.9530230319325424e-05 -2.8142724180235011e-05 -8.3844607375396714e-05 -694.36102562126030 1.4575588973397448e-06 7.1533569290238574e-08 0.00037673439613428172 0.090021886530069775 8.3905631263075116e-10 2.5924619725919682e-09 4.1046846605879281e-09 0.090255084460656582 -114.62406224400000 -99.805851428000011 96.572263865600007 85.211636250682801 0.0000000000000000 0.0000000000000000 0.0000000000000000 0.0000000000000000 3.2191166433790888 3.4473550772627495 1.2282287985220317 1.0962666869806921 1634.5715269446505 1643.1750687830561 1.1082009402366246 
-113.14589226146225 -91.223511749534282 92.674294839304537 -113.14589226146224 -91.223511749534282 92.674294839304565 -641.75937352370761 -8.3762303267139501e-06 -1.3124888959067229e-06 -9.0534452649000297e-05 -635.96469841666647 1.4163671787637000e-06 3.7937377683761042e-08 0.00036373934222844184 0.088065728536646778 -1.5827980491068869e-10 -7.8631385120223881e-10 5.3979258955598228e-09 0.087144929127565454 -111.08756211600000 -91.097641973600034 100.22126851279998 99.535403830130534 0.0000000000000000 0.0000000000000000 0.0000000000000000 0.0000000000000000 3.2324140885169119 3.4772572265855675 1.2450626563943195 1.1022253312663843 1585.6194264536114 1587.4555546610022 1.1159467619878671 
-114.99343061240393 -97.865620191886237 101.44319037594730 -114.99343061240393 -97.865620191886208 101.44319037594731 -582.69746077547484 -8.5865844815788217e-06 -6.3671058781365696e-06 -8.1634875990085521e-05 -581.91339565969361 1.4375283562406693e-06 6.3238700942491719e-08 0.00033465972213697620 0.084598562687531950 -8.4144890934109926e-11 1.2202196923432902e-10 2.8426546382977552e-09 0.084379690050658443 -112.90434805199999 -97.655804887999992 108.38681131359999 128.09762094244454 0.0000000000000000 0.0000000000000000 0.0000000000000000 0.0000000000000000 3.2165868908792685 3.4449853153649341 1.2285743613148508 1.1023654307150181 1460.3301284785168 1470.5238311213482 1.1084165062579783 
-109.14642501167620 -104.13019066866995 93.027493529943925 -109.14642501167614 -104.13019066866993 93.027493529943953 -632.03295434576637 -9.3505791658480774e-05 -9.0211534488292781e-06 -9.5895686598739034e-05 0.0000000000000000 1.3705583866707727e-06 8.7101905910103028e-08 0.00036256805631751376 0.087096892743284596 8.5581308484461999e-09 1.2700924905187788e-10 2.3396325191960402e-09 0.0000000000000000 -107.15466629968294 -103.84120130723400 100.55016500991876 102.24201981555134 0.0000000000000000 0.0000000000000000 0.0000000000000000 0.0000000000000000 3.1833048985455865 3.3674633016203752 1.1840148949806801 1.0876910643581321 1466.0495823399763 1441.2482058829926 1.0879834552651884 
-27.607153568607384 -115.68896981884620 95.800976398246746 -27.607153568607377 -115.68896981884612 95.800976398246789 -184.22668490684819 6.8960967721167432e-05 2.6970315664413063e-05 -9.2325987505564606e-05 0.0000000000000000 3.7692908914297838e-06 -1.3868257766971788e-05 0.00039358445236731146 0.071789656405220309 -6.6950839300897925e-09 -3.5841987108941512e-09 5.7940121059379377e-09 0.0000000000000000 -26.889884864405381 -115.37486796036181 103.37575244326078 96.382960025775517 0.0000000000000000 0.0000000000000000 0.0000000000000000 0.0000000000000000 3.2907622607330427 3.6023236416348401 1.3118832214493568 1.1446119204867873 873.78821045812242 873.78836847273874 1.1453412650276280 
-111.60094861007522 -103.90795401287681 148.49100122756516 -111.60094861007521 -103.90795401287686 148.49100122756516 -522.66156048235541 1.7230527819213516e-06 5.8195778707643521e-06 5.9820268656858563e-07 -525.07828287553446 1.3986718198077952e-06 8.6255353970443593e-08 0.00017863865197398354 0.079216242519040941 -1.5096568640969641e-10 -5.9570868265797648e-10 1.4626642074091248e-10 0.079276490965630247 -109.56833416800004 -103.62177336400003 152.19744990400002 70.302883591683823 0.0000000000000000 0.0000000000000000 0.0000000000000000 0.0000000000000000 3.2055670171931734 3.4193746725238010 1.2138922012115712 1.1020166008870254 1329.2272483084448 1329.2343287131475 1.1017859417291762 