# For a description of the Tecplot format see the Tecplot User's guide.
#
Variables=x,y,z,s_u,s_v,s_w,s_p,mono_f_vel_u,mono_f_vel_v,mono_f_vel_w,const,u_nu,v_nu,w_nu,p_nu,x_nu,y_nu,z_nu,const,u_ref,v_ref,w_ref,vol_ref,x_ref,y_ref,z_ref,const,I1,I2,I3,J,p1,p2,p3
Zone f=fepoint, n=3174, e=16683, et=brick, c=black
-25.5508 -155.168 105.019 -25.550771374855131 -155.16788652008887 105.01921619310632 -346.45967570908920 -3.7639906298491031e-05 -0.00014464630930438249 -0.00015239591843315212 -328.01575223697648 2.8976820942716592e-14 9.3258734068513149e-15 6.4341847405557928e-09 -0.0058238500390538012 1.9297212232203411e-11 1.4834176080808180e-10 -6.1034280834696218e-11 -0.0057849558462164073 -24.903554063199991 -154.16086777200002 112.24023381839994 89.724962256112903 0.0000000000000000 0.0000000000000000 0.0000000000000000 0.0000000000000000 3.2413802521059192 3.4923731766308781 1.2508825628794742 1.1209577084314934 1061.2945062162992 1061.6826817680080 1.1182787283230478 
-38.372925532654243 -156.60308051038396 107.75543775557981 -38.372925532654236 -156.60308051038388 107.75543775557981 -282.19895495858850 0.00011862779350209036 -0.00011318439608431031 -7.5237682205188321e-05 0.0000000000000000 3.8837831008247767e-08 -6.0595326861948429e-08 -5.9070848129249252e-07 -0.0060097232736350441 -4.6326129073753917e-10 3.7971130837461762e-10 -3.0249272102518994e-10 0.0000000000000000 -37.438273663334591 -155.10473791080037 114.93291110338620 89.036758072416930 0.0000000000000000 0.0000000000000000 0.0000000000000000 0.0000000000000000 3.3211210331216319 3.6701266622873310 1.3495864648247704 1.1529875627362089 1103.0818349459987 1102.9288267880654 1.1618882669944599 
-32.311158196333402 -148.79931310165119 113.25099663777232 -32.311158196333402 -148.79931310165111 113.25099663777236 -238.35986680954878 3.5473571965365963e-05 -7.9508558843006822e-05 -3.1717738913141518e-05 0.0000000000000000 3.3473224192448476e-14 7.1054273576010019e-15 5.8900653243654233e-09 -0.0058818698768685306 -1.1233350598162317e-10 -4.7452482741830520e-11 8.1722440295961607e-11 0.0000000000000000 -31.542619574254449 -147.87907313389167 119.86135157363466 98.260374494724786 0.0000000000000000 0.0000000000000000 0.0000000000000000 0.0000000000000000 3.2710822696284034 3.5598253556794108 1.2889327043824175 1.1383997176424805 960.82554707565475 961.05251957705616 1.1351145541956944 
-29.363292255502618 -143.81976982848397 104.89423150614283 -29.363292255502635 -143.81976982848394 104.89423150614280 -237.73788863447024 3.8304288836396516e-05 -0.00010798233339215930 -6.3774791328669383e-05 0.0000000000000000 3.1141755840735641e-14 1.2434497875801755e-14 6.4424483525726836e-09 -0.0059146921613904080 -6.6070150160595561e-10 -5.6568157677776259e-11 -1.2710381277316674e-10 0.0000000000000000 -28.647655777685479 -142.96738158566356 112.12452093910819 112.69127588814607 0.0000000000000000 0.0000000000000000 0.0000000000000000 0.0000000000000000 3.2835091135123475 3.5879447136167926 1.3048467488663322 1.1390964526742924 974.16213854015120 974.37352964439538 1.1423064830384428 
-24.897351288351256 -202.07838530825376 63.419515409041708 -24.897351288351253 -202.07838530825373 63.419515409041701 -1086.8022337808522 7.7176361244596862e-06 8.5197301316406700e-07 4.8126923123375237e-06 -1092.7071257136968 2.7700064464397649e-14 1.8651746813702627e-14 9.1839389426695545e-09 -0.0053243234506836472 -9.2638397712844181e-11 -2.5580880347059589e-12 -2.4718035920210846e-11 -0.0053204413705721359 -24.261860196399997 -200.43215969199997 73.726546483199982 142.71380061529433 0.0000000000000000 0.0000000000000000 0.0000000000000000 0.0000000000000000 3.2316611367780221 3.4751805102266848 1.2436913916153427 1.1150597108038127 2360.6508015080231 2360.6629371893891 1.1152097773729228 
-24.790979923544999 -189.10857547573579 65.129720221445467 -24.790979923544999 -189.10857547573576 65.129720221445481 -1068.0764401410258 2.6300332968467952e-05 -3.4676154853858182e-05 -1.1075082600564800e-05 -1075.2279736783751 2.6367796834847462e-14 1.8651746813702630e-14 9.0708986988374818e-09 -0.0053393367418539811 -6.2622195901020809e-11 -9.4460623137871819e-12 -1.7592945641935561e-11 -0.0053511708684379220 -24.157397762799999 -187.63907770800003 75.309882232799993 165.73632395326644 0.0000000000000000 0.0000000000000000 0.0000000000000000 0.0000000000000000 3.2317170942166031 3.4752109138504084 1.2436624119597663 1.1150597108038116 2329.3907980090562 2329.3627415084261 1.1151930320825776 
-35.715168974871276 -196.98819514210774 71.920263727544878 -35.715168974871261 -196.98819514210763 71.920263727544850 -1056.7707416065048 1.2621784586029824e-05 -2.7182184897948543e-05 -5.2673663457693828e-05 0.0000000000000000 3.4916514124461180e-14 1.0214051826551440e-14 8.6220417472304689e-09 -0.0053772077860560537 -1.5399338790970025e-10 1.7697343730618651e-10 -3.6608499651869958e-10 0.0000000000000000 -34.885542273181727 -195.41132893576267 81.596679120775832 139.46796289390394 0.0000000000000000 0.0000000000000000 0.0000000000000000 0.0000000000000000 3.2295486565204534 3.4708205474435130 1.2414441444756885 1.1129365444320021 2305.8749735442975 2305.8642571923574 1.1141987162384839 
-19.358695826605690 -196.09438709552737 71.721818212661617 -19.358695826605690 -196.09438709552731 71.721818212661660 -1078.0143600244307 1.3447395964698508e-05 -1.7587696200612418e-05 -2.4744031097745414e-05 0.0000000000000000 2.1538326677728037e-14 1.0658141036401503e-14 8.6351619188462791e-09 -0.0052715249360324300 1.1928139011153276e-11 9.5585309378265532e-12 -4.6151291593864995e-11 0.0000000000000000 -18.822600960987238 -194.52970000168264 81.412954998504986 111.95285379220412 0.0000000000000000 0.0000000000000000 0.0000000000000000 0.0000000000000000 3.2321067925416140 3.4760517208869279 1.2441162790030835 1.1150597108038123 2356.2848852976899 2356.3109261208647 1.1154024789513768 
-23.270273775256236 -103.51104714877052 30.488727772141207 -23.270273775256239 -103.51104714877053 30.488727772141210 -1030.9879070912702 -3.3471120061481724e-05 4.0312913756704887e-05 -5.5134266315539694e-05 -1042.7334542529179 2.6423307986078719e-14 6.8833827526759706e-15 1.1360672402815906e-08 -0.0037141874332246127 1.8699053007998495e-10 -3.0324997936324404e-10 3.8420493922644671e-10 -0.0036667460712931027 -22.663982073999996 -103.20790935200000 43.238681550399988 69.202643319072678 0.0000000000000000 0.0000000000000000 0.0000000000000000 0.0000000000000000 3.2312030262527682 3.4742042083086315 1.2431719672172512 1.1150597108038132 2265.7379233043289 2265.8863680723948 1.1149784294219043 
-30.894781129559156 -111.18075287225281 34.539287080162282 -30.894781129559153 -111.18075287225281 34.539287080162289 -1001.8821970517270 2.0503058158850276e-06 6.2536369894151752e-05 -7.4625519407313544e-05 -993.68087409764348 3.3251179587523432e-14 -1.5543122344752192e-15 1.1092927465483626e-08 -0.0039056400050367403 7.1713858241917986e-11 -4.8670401164336423e-10 4.7092467223698019e-10 -0.0040153524558263886 -30.151660686400003 -110.77310694400001 46.988755992800002 74.715282964229786 0.0000000000000000 0.0000000000000000 0.0000000000000000 0.0000000000000000 3.2323309726352059 3.4765039928533175 1.2443439583268054 1.1150597108038125 2210.1108824554904 2210.0037694239468 1.1155076836141731 
-19.269647119308274 -103.87514738077344 37.800909087111712 -19.269647119308274 -103.87514738077341 37.800909087111719 -980.39835681312888 -4.1177271922282531e-05 3.2865693473433542e-05 -7.8956522979549214e-05 -982.66672969856870 2.4535928844215963e-14 -3.9968028886505635e-15 1.0877334588599297e-08 -0.0040508517121494742 2.7307882738316999e-10 -2.7681604142968064e-10 4.9921564753770088e-10 -0.0040634731581771352 -18.735150314000002 -103.56704831999998 50.008419303199993 79.719497061372692 0.0000000000000000 0.0000000000000000 0.0000000000000000 0.0000000000000000 3.2313025505700774 3.4744009527364974 1.2432690149879098 1.1150597108038118 2175.1970844528328 2175.2980841136969 1.1150198200719055 
-26.149847511746046 -98.725518923499791 38.852757600404907 -26.149847511746049 -98.725518923499763 38.852757600404885 -994.91105979954341 2.1400616215170946e-06 1.4451459271373386e-05 -0.00012207086107721791 0.0000000000000000 2.7478019859472628e-14 1.3322676295501878e-15 1.0807806205548330e-08 -0.0038719490501670567 1.3490371543940010e-10 -2.7637321837416955e-10 6.6589287048230464e-10 0.0000000000000000 -25.491879232152165 -98.487589184379729 50.982237960580505 72.292163684038698 0.0000000000000000 0.0000000000000000 0.0000000000000000 0.0000000000000000 3.2311045428951819 3.4740545870579962 1.2431225851012930 1.1150597108038129 2197.6592091318325 2197.5658329302751 1.1149509617487541 
-26.089128150928929 -104.42668109562935 101.20424894038082 -26.089128150928911 -104.42668109562932 101.20424894038082 -224.48048406005455 3.4971741205398905e-05 0.00011565197817314984 -1.0083707115701506e-05 0.0000000000000000 -6.1123546298121894e-08 -3.5636730430335037e-07 -5.2493490782778999e-07 -0.0053701670474215011 4.1607438202948320e-10 3.8678736953852263e-11 -1.5033776477339492e-09 0.0000000000000000 -25.283559732051039 -104.23282252886388 108.75695162467670 96.378087069502698 0.0000000000000000 0.0000000000000000 0.0000000000000000 0.0000000000000000 3.2739632467622171 3.5642166622902818 1.2902691997359812 1.1424158378873939 915.30017603715521 915.31445531134602 1.1357087583411354 
-26.756779308039057 -118.39783711884344 103.21483944775962 -26.756779308039075 -118.39783711884354 103.21483944775957 -154.51016333145537 4.5935196814597815e-05 2.7168236797976717e-06 -3.8906893832364538e-05 0.0000000000000000 -3.3725427571102991e-08 -8.6377474192586869e-07 -7.8789230384030426e-07 -0.0055154173940342747 4.5553277108153515e-10 -5.7380635087842092e-10 -9.0868038736149908e-10 0.0000000000000000 -25.913646985361510 -118.01095136745833 110.66456878241424 88.846747377876298 0.0000000000000000 0.0000000000000000 0.0000000000000000 0.0000000000000000 3.3539508640885423 3.7386553098748574 1.3853229134312819 1.1658435867275569 940.30399645798411 940.31940750475860 1.1771895051986829 
-37.491996389595869 -112.75751483306540 104.75051390034020 -37.491996389595890 -112.75751483306534 104.75051390034015 -160.43818054599316 -4.1304057768136306e-05 5.4682205156229423e-05 3.2757010918296423e-05 0.0000000000000000 -4.3723458044423135e-07 -1.2821908359736507e-06 -7.1308333131609522e-07 -0.0052883460720500822 -3.0653485753978967e-10 -1.1180500501737858e-10 1.6085742737747371e-10 0.0000000000000000 -36.236867317722961 -112.72601430119678 112.03758904139967 95.996160021407249 0.0000000000000000 0.0000000000000000 0.0000000000000000 0.0000000000000000 3.3616647361786400 3.7560996504554360 1.3952049049992248 1.1745440813031758 967.30764780518166 967.30911923123585 1.1812138523048865 
-34.443803385208142 -105.02039466873768 97.647771551051505 -34.443803385208156 -105.02039466873762 97.647771551051434 -218.49748737288598 1.0557215095462915e-06 0.00013057955238131563 -1.3010595543693219e-05 0.0000000000000000 -2.0933806684072382e-07 -7.2071564404679586e-07 -3.6792772652190586e-07 -0.0054622844082992429 4.4620682567122033e-10 1.1461303489503722e-10 -7.4537345532325305e-10 0.0000000000000000 -33.380789828628046 -105.09637623893835 105.63342596379557 85.433794965156210 0.0000000000000000 0.0000000000000000 0.0000000000000000 0.0000000000000000 3.3313319306613307 3.6868863248356680 1.3558387725853533 1.1572175155375390 974.44366692262599 974.44359084481471 1.1643737348398495 
-114.46223702320849 -161.76032757387100 118.43876302202273 -114.46223702320846 -161.76032757387102 118.43876302202268 -608.72342507411167 6.7490043074016340e-06 -2.1119178278594851e-05 -4.8991030198945381e-05 -606.35668663005595 9.5312646664069689e-14 1.8651746813702630e-14 5.5471502946602413e-09 -0.0055695760619908765 1.1617102059572957e-11 -3.4711726151709012e-11 -6.0038691309211029e-11 -0.0055638823886571187 -112.21942232800005 -160.66347960400000 124.66427103520003 147.55923210393107 0.0000000000000000 0.0000000000000000 0.0000000000000000 0.0000000000000000 3.2475301703600272 3.5107681904347507 1.2635211375695723 1.1150597108038129 1559.6877376831883 1559.6877373097975 1.1242791057854420 
-101.54359535323803 -159.15605080918746 109.71194696624349 -101.54359535323799 -159.15605080918743 109.71194696624345 -631.87322027621212 -4.5602345833839344e-05 -3.5845974840968636e-05 -9.1170516095564230e-05 0.0000000000000000 8.0657702739017623e-14 6.2172489379008758e-15 6.1240061910439189e-09 -0.0056448638728555049 5.2034058647386015e-11 -1.4324421008887534e-11 -3.5561322215869116e-11 0.0000000000000000 -99.532617471171264 -158.09468895943013 116.58484116745363 117.70414803503969 0.0000000000000000 0.0000000000000000 0.0000000000000000 0.0000000000000000 3.1946140815730084 3.3866972535341078 1.1917059754854480 1.0957145209711225 1489.5526256754431 1489.5526171557044 1.0914645996627390 
-106.44143666648456 -149.78870127667847 114.36397003186543 -106.44143666648459 -149.78870127667855 114.36397003186541 -586.79298779169471 -3.7811098835523459e-05 -4.1033221450687769e-05 -4.0986558806734288e-05 0.0000000000000000 9.5978780478844770e-14 -7.9936057773011271e-15 5.8164975058616611e-09 -0.0055696523944508431 6.8762262882356368e-11 -5.4768850937053886e-11 -6.3390623430865021e-11 0.0000000000000000 -104.34256255272837 -148.85497981259945 120.89176065121424 119.29379793442074 0.0000000000000000 0.0000000000000000 0.0000000000000000 0.0000000000000000 3.1947015642237186 3.3919239747425771 1.1971666927428866 1.0975103019311687 1415.9437649194294 1415.9437678673485 1.0939147410608152 
-102.55962108574022 -163.40227603173733 118.33457865453153 -102.55962108574022 -163.40227603173744 118.33457865453148 -601.13975995074145 -2.4052821984896553e-05 -5.4042362093131102e-05 -4.4741671236996017e-05 0.0000000000000000 8.4432461022743155e-14 1.3766765505351941e-14 5.5540336774129165e-09 -0.0056032886602013776 6.6451207410705559e-11 -3.9231600895570823e-11 -7.9641682352873722e-11 0.0000000000000000 -100.53040969477119 -162.28305471776312 124.56781543385799 141.51484144144280 0.0000000000000000 0.0000000000000000 0.0000000000000000 0.0000000000000000 3.1985422039978038 3.4027738577393043 1.2042163933672514 1.0988663430009606 1449.2133571885213 1449.2133584223700 1.0972115449304303 
-80.025340741054791 -149.73036455036004 80.400940204015768 -80.025340741054805 -149.73036455036004 80.400940204015782 -660.87525619908797 -0.00010986154549708518 -8.0147249700117899e-05 -3.8836331344853179e-05 -662.58300523338687 6.7335026443515744e-14 4.4408920985006262e-16 8.0614697139935743e-09 -0.0055417868665558244 1.1984770773661166e-10 1.0543582427057159e-10 2.8618216806539653e-11 -0.0055714444048191574 -78.400527573600002 -148.79743798799998 89.448228916799977 108.06316173413846 0.0000000000000000 0.0000000000000000 0.0000000000000000 0.0000000000000000 3.2473517855534388 3.5082839761608748 1.2611779981585871 1.1150597108038134 1653.6709915957570 1653.6713594207247 1.1232112269498697 
-81.806134423883023 -163.65734117155688 78.591489532761372 -81.806134423883037 -163.65734117155688 78.591489532761372 -832.86390504934218 -6.2211098059136838e-05 -0.00013255888215406669 -7.2107353898695769e-05 -839.39317562109875 7.2442052356791464e-14 1.0214051826551440e-14 8.1810647145630355e-09 -0.0053960542581793529 -8.1420646807484576e-11 1.7390237923818053e-10 1.2292132265880703e-11 -0.0053491183237535890 -80.149363288800018 -162.53464431600008 87.773009718400019 109.57810873427631 0.0000000000000000 0.0000000000000000 0.0000000000000000 0.0000000000000000 3.2493621156364436 3.5115561324623319 1.2623834493710491 1.1150597108038116 1955.8010881210723 1955.8010071340004 1.1238016518194007 
-86.028015251858363 -161.27466364416821 86.368609392761641 -86.028015251858363 -161.27466364416827 86.368609392761712 -753.55198609478680 -4.3056110817159332e-05 -9.0110179382842649e-05 -0.00013207852791645314 0.0000000000000000 7.7993167479917247e-14 6.2172489379008766e-15 7.6669941506679606e-09 -0.0054359270241943767 2.1224019046171348e-10 -6.1540053977452472e-11 1.0256011305402770e-10 0.0000000000000000 -84.295478612813938 -160.18443337667750 94.973195224810283 106.11323630727971 0.0000000000000000 0.0000000000000000 0.0000000000000000 0.0000000000000000 3.1885673513002684 3.3860198754494504 1.1975411461428143 1.0976344594600635 1690.0357393183144 1690.0358274114544 1.0939711046823646 
-88.246357497703457 -152.35889224387611 83.842503554683816 -88.246357497703457 -152.35889224387617 83.842503554683830 -720.81211630188864 -5.0563875988755075e-05 -0.00011740498443958996 -0.00012565538953867182 0.0000000000000000 8.1767925763642779e-14 -4.8849813083506888e-15 7.8339681408579054e-09 -0.0055111411578993444 -1.2627353002014616e-11 1.1842232225718529e-10 -1.2902112778682071e-12 0.0000000000000000 -86.474010682800568 -151.39014911596544 92.634484883397832 94.367740677547317 0.0000000000000000 0.0000000000000000 0.0000000000000000 0.0000000000000000 3.2100544194059619 3.4309493562999198 1.2210697418311371 1.1016377674648858 1668.4055351952929 1668.4054401658893 1.1050256846676374 
-26.686251060753779 -133.13772885999597 133.53933020720586 -26.686251060753779 -133.13772885999600 133.53933020720589 -334.60264535035037 3.5032993164472869e-05 -2.9769622901885219e-05 0.00013712743274218807 -356.44535667862880 2.9254376698872881e-14 1.1102230246251565e-15 4.5489993993896852e-09 -0.0053810893156498426 -1.0034185385443712e-10 1.2155253387537656e-11 1.0858287216087701e-10 -0.0053380997514995291 -26.018656529999991 -132.43089511199997 138.64462455200004 49.421240865332216 0.0000000000000000 0.0000000000000000 0.0000000000000000 0.0000000000000000 3.2289010844711399 3.4688322576505892 1.2401059374876870 1.1218049299916844 1046.6509828212711 1046.6363153435070 1.1137010777967866 
-33.281397363688896 -134.68472660475277 132.41418883488092 -33.281397363688903 -134.68472660475271 132.41418883488089 -315.19931513187061 -2.3474118762929718e-06 2.5891712936840714e-05 7.2425054592096792e-05 -245.81096724413754 3.1363800445660672e-14 -4.8849813083506896e-15 4.6233665784711775e-09 -0.0054785816311519950 -1.2341234772104598e-10 -1.8635058473267898e-10 -1.2915817217821299e-10 -0.0052217289012459643 -32.495446914399992 -133.95681332000001 137.60295016000006 48.530522504776933 0.0000000000000000 0.0000000000000000 0.0000000000000000 0.0000000000000000 3.2828442093937737 3.5857218904743271 1.3032369609892809 1.1407793814411655 1114.6693334312722 1114.6218207814261 1.1414359777219378 
-29.129647363425821 -137.20097705806933 135.33817489020930 -29.129647363425821 -137.20097705806936 135.33817489020930 -335.20926297063073 3.8633405592234143e-05 3.2949427628288776e-05 4.3793256268218722e-05 -353.89778253206259 2.9365399001335390e-14 2.2204460492503131e-16 4.4301096124854666e-09 -0.0054657107200559605 -2.5863565245671151e-11 -9.6757405738439945e-11 -1.1963622926569501e-10 -0.0054667345944506797 -28.418203856399998 -136.43877710800004 140.31002455199999 44.353383947079159 0.0000000000000000 0.0000000000000000 0.0000000000000000 0.0000000000000000 3.2396334725048153 3.4909534399250486 1.2514587651575826 1.1269402161402455 1069.5702278242893 1069.8050409900593 1.1186519748496282 
-27.449660093785408 -130.16810651932886 139.16000135650228 -27.449660093785393 -130.16810651932886 139.16000135650225 -364.79469765077465 2.0318393249922485e-05 2.4447441338055858e-05 2.4313749157587825e-05 0.0000000000000000 2.9531932455029164e-14 -1.7763568394002505e-15 4.1774850245701600e-09 -0.0053907821988506558 -5.7417167789775324e-11 -5.6196864600506787e-11 -4.4029825867940900e-12 0.0000000000000000 -26.768365491316434 -129.50173712462359 143.84833436668455 49.139845408488213 0.0000000000000000 0.0000000000000000 0.0000000000000000 0.0000000000000000 3.2451476626711209 3.5055378730142808 1.2606403456392845 1.1276252591149438 1143.2257626412891 1143.2087165397522 1.1227343071296010 
-40.993106023389132 -65.257968749001265 150.07474225609738 -40.993106023389139 -65.257968749001279 150.07474225609741 -545.02927227018688 -1.5936698908279457e-05 -1.5552444843016366e-06 3.1214531666670978e-05 -550.29314448924367 3.7470027081099033e-14 1.1102230246251565e-15 3.4559963779656755e-09 -0.0053350108665226456 3.7025629645578533e-12 -1.2232669450256572e-11 3.2855070531959336e-11 -0.0053354688167687172 -40.068761925200000 -65.476070995999990 153.95338104800004 156.95717166164070 0.0000000000000000 0.0000000000000000 0.0000000000000000 0.0000000000000000 3.2263920610724024 3.4646048851123439 1.2384081973717651 1.1118844987895402 1408.4792489839781 1408.5396412147672 1.1128499690310341 
-53.576930211698482 -59.357270553663028 145.00941149012166 -53.576930211698482 -59.357270553663049 145.00941149012166 -553.90072967034325 -1.9365074656912873e-05 -3.6941404080708606e-06 2.2276347099438870e-05 -556.71803559325326 5.2458037913538640e-14 -2.4424906541753444e-15 3.7908254313379083e-09 -0.0053245355818956194 -1.3761379846671355e-11 -4.2721468147828996e-12 2.1725190618147068e-11 -0.0053251694884266241 -52.426757905599978 -59.655776269200025 149.26381449600007 118.05125250056595 0.0000000000000000 0.0000000000000000 0.0000000000000000 0.0000000000000000 3.2359024403126857 3.4848904852870750 1.2491990956274128 1.1122973975114774 1442.1506972698203 1442.1373689239206 1.1177060963062071 
-36.007795412537668 -65.819316903344102 140.40350565618505 -36.007795412537675 -65.819316903344102 140.40350565618502 -527.09728898803007 -3.8489959513483230e-06 2.1026492785811398e-06 3.3535617958133281e-07 -526.83910067357851 3.3140157285060929e-14 -4.2188474935755949e-15 4.0952805591132338e-09 -0.0053147479494791601 -9.5118460318844928e-13 -3.7517661941693817e-12 1.6376975694488791e-11 -0.0053126091908303006 -35.172917262399999 -66.029770167599992 144.99959110400002 155.12084301790807 0.0000000000000000 0.0000000000000000 0.0000000000000000 0.0000000000000000 3.2334953590741997 3.4785930450364186 1.2452662094997380 1.1144039692152428 1391.8010425860086 1391.6663637870829 1.1159185506928735 
-51.526198295313357 -66.387415894454307 137.38333842631320 -51.526198295313385 -66.387415894454307 137.38333842631314 -538.24623855971345 -1.8445199508260986e-05 1.2261714545748705e-05 1.2798313717956317e-05 0.0000000000000000 4.8239190419963058e-14 -1.3322676295501880e-15 4.2949075407250340e-09 -0.0053167726665669345 -4.7746543144375613e-12 -1.3604469383870321e-11 1.4582895011891210e-11 0.0000000000000000 -50.412828244765279 -66.590128188430739 142.20347059834828 136.07757377940416 0.0000000000000000 0.0000000000000000 0.0000000000000000 0.0000000000000000 3.2105623834179493 3.4280714204020430 1.2175014279495786 1.1060635753310832 1363.9973647677837 1363.9939516097336 1.1033615012990412 
-96.479822701086931 -159.78670637379034 67.632359288984631 -96.479822701086945 -159.78670637379034 67.632359288984631 -992.57579548707974 -2.6033865473378466e-05 -3.9273104517082470e-05 -5.6037883119428713e-05 -993.69668417934508 8.6652907071993455e-14 6.6613381477509392e-15 8.9054754681683351e-09 -0.0054051336368405737 1.3871707443651731e-11 1.0433333183149875e-11 2.6353101703713519e-11 -0.0053962769083404699 -94.559718839999974 -158.71675115199997 77.626866652000004 109.98746742214213 0.0000000000000000 0.0000000000000000 0.0000000000000000 0.0000000000000000 3.2303803035126677 3.4725117600018671 1.2423031412547521 1.1150597108038127 2195.8702697877916 2195.8702407983301 1.1145782568364546 
-91.513111166429596 -159.53290205629119 72.829379876513656 -91.513111166429567 -159.53290205629122 72.829379876513684 -917.01679870187138 -9.4671436271146097e-05 -8.9868227978072361e-05 -0.00011417697654074207 -893.50688531462231 8.1101791948867685e-14 3.5527136788005009e-15 8.5619475953535568e-09 -0.0054112807209937830 -5.2950011726561072e-12 5.4224654571467794e-11 6.7842682397147635e-12 -0.0054286387900708841 -89.682139475999989 -158.46640519600001 82.438353807199988 112.88451412247700 0.0000000000000000 0.0000000000000000 0.0000000000000000 0.0000000000000000 3.2332451148962971 3.4778412466060207 1.2447521835607689 1.1150597108038114 2059.1530949986300 2059.1528897148100 1.1156487682692882 
-104.77890506277022 -155.96187637316325 77.334195284505128 -104.77890506277025 -155.96187637316325 77.334195284505128 -903.96709844291104 -2.2514932587267317e-05 -2.1721247775014709e-05 -0.00012662492870243327 0.0000000000000000 9.2648111404969313e-14 -2.2204460492503131e-15 8.2641697929375368e-09 -0.0054443718118322394 -6.6201369823088681e-12 -9.4923381059933000e-12 8.9409067478195880e-11 0.0000000000000000 -102.70986659571734 -154.94403864466588 86.608986019839278 111.02505284862640 0.0000000000000000 0.0000000000000000 0.0000000000000000 0.0000000000000000 3.2352459167530454 3.4828427152462487 1.2477725040152710 1.1120995328771055 2058.8568781740760 2058.8571747932274 1.1171056026963759 
-102.43402207899778 -168.36069852406911 74.159796222578592 -102.43402207899774 -168.36069852406911 74.159796222578564 -963.61074636087847 -1.2173795309515332e-05 -2.7796415577213368e-05 -0.00012198033330651231 0.0000000000000000 8.7985174701543668e-14 1.8207657603852567e-14 8.4740108263758884e-09 -0.0054055620224199557 -3.2543199302840861e-11 4.1980276339052733e-12 -5.5023167162573761e-11 0.0000000000000000 -100.40706467681501 -167.17391327890167 83.670075146830683 105.53983917324770 0.0000000000000000 0.0000000000000000 0.0000000000000000 0.0000000000000000 3.2308777038814656 3.4735757517365315 1.2428695748548642 1.1126577982511068 2140.2144020976780 2140.2144100667410 1.1148486775879356 
-116.91081897671673 -100.06199207598385 88.095807736848457 -116.91081897671671 -100.06199207598387 88.095807736848442 -736.12201890217852 -2.1204427441341601e-05 -3.0752596160614960e-05 -9.0956712523483765e-05 -746.70602104366606 1.0286942817658667e-13 2.2204460492503135e-15 7.5528312493133853e-09 -0.0053426301549807879 -6.2035965504170925e-12 -5.5096311891624256e-11 6.8984800228890694e-11 -0.0053395243493235215 -114.62406224400000 -99.805851428000011 96.572263865600007 85.211636250682801 0.0000000000000000 0.0000000000000000 0.0000000000000000 0.0000000000000000 3.2381470209111964 3.4870285367671561 1.2488674820462877 1.1044207386820712 1759.9108517547029 1759.8273711725426 1.1174663226655801 
-113.30969336352932 -91.233484547730768 92.037198758747422 -113.30969336352929 -91.233484547730768 92.037198758747408 -689.67526878894876 -9.0654923664724008e-06 -1.4916813109912191e-06 -9.8068136713751644e-05 -683.37506371611676 9.7089003503469939e-14 -2.2204460492503127e-15 7.2923018734627484e-09 -0.0053305316919387566 -8.9425590211054851e-12 -5.3509316097613662e-11 1.2763426584891264e-10 -0.0053402817099312489 -111.08756211600000 -91.097641973600034 100.22126851279998 99.535403830130534 0.0000000000000000 0.0000000000000000 0.0000000000000000 0.0000000000000000 3.2523228300596467 3.5192393669676885 1.2671958657801681 1.1108389890681887 1706.2897555528505 1706.2853637456499 1.1258439398325029 
-115.15967897953671 -97.882244084863416 100.85702777943675 -115.15967897953671 -97.882244084863430 100.85702777943675 -625.71223071276495 -9.2916060061611608e-06 -6.9746430977908010e-06 -8.8443272302630876e-05 -624.86018748746756 9.4424468244369564e-14 -3.9968028886505635e-15 6.7093139932694604e-09 -0.0053863635725132641 -3.2874997857995741e-11 -9.8837071359467853e-11 -8.4122894307911989e-12 -0.0053901223384245122 -112.90434805199999 -97.655804887999992 108.38681131359999 128.09762094244454 0.0000000000000000 0.0000000000000000 0.0000000000000000 0.0000000000000000 3.2350895121249010 3.4840606753187853 1.2491946322747725 1.1110128428255321 1570.8441960339214 1570.8501533600165 1.1176821541756625 
-109.30492838529459 -104.15308760767806 92.392448977974382 -109.30492838529462 -104.15308760767810 92.392448977974396 -679.15814118224682 -0.00010208651243269862 -9.7704047099436884e-06 -0.00010375345286234916 0.0000000000000000 9.0871754565569050e-14 7.1054273576010019e-15 7.2688184360458763e-09 -0.0054172285330875225 1.4040260721676949e-10 -7.6303883979148732e-11 2.6515496836206452e-11 0.0000000000000000 -107.15466629968294 -103.84120130723400 100.55016500991876 102.24201981555134 0.0000000000000000 0.0000000000000000 0.0000000000000000 0.0000000000000000 3.1991474532723037 3.3992221618602363 1.1998891355732513 1.0949318724869357 1577.0838022538467 1577.0971987749313 1.0952264051612675 
-27.664841117068214 -115.71328363769410 95.160518204581734 -27.664841117068224 -115.71328363769409 95.160518204581749 -194.33644499798018 7.5233251424022880e-05 2.9157879925667634e-05 -9.9899902928688198e-05 0.0000000000000000 -9.6458082051322622e-08 -8.4522071363254286e-07 -4.6833204506912341e-07 -0.0058211130195130181 3.3572583514313492e-12 -3.9028793910616407e-10 -8.1087641159690095e-10 0.0000000000000000 -26.889884864405381 -115.37486796036181 103.37575244326078 96.382960025775517 0.0000000000000000 0.0000000000000000 0.0000000000000000 0.0000000000000000 3.3163966427444267 3.6573847086890927 1.3414004802499522 1.1573171068972170 935.99025347580402 935.97102796102979 1.1581492442671932 
-111.76270326659782 -103.93062841455748 148.17811237612585 -111.76270326659780 -103.93062841455752 148.17811237612585 -560.54998212283249 1.8791693537768646e-06 6.3636625244966592e-06 6.1594614849534276e-07 -563.16963922525179 9.2204022195119238e-14 1.5543122344752194e-15 3.5813805254747426e-09 -0.0053588382265418316 -4.7278179151921105e-12 -1.8807768913133488e-11 5.0485275586839064e-12 -0.0053534141407611683 -109.56833416800004 -103.62177336400003 152.19744990400002 70.302883591683823 0.0000000000000000 0.0000000000000000 0.0000000000000000 0.0000000000000000 3.2231087293884850 3.4558698596788933 1.2328676477234999 1.1106337290278108 1428.5411055873517 1428.5411062960991 1.1103673460434433 