# For a description of the Tecplot format see the Tecplot User's guide.
#
Variables=x,y,z,s_u,s_v,s_w,s_p,mono_f_vel_u,mono_f_vel_v,mono_f_vel_w,const,u_nu,v_nu,w_nu,p_nu,x_nu,y_nu,z_nu,const,u_ref,v_ref,w_ref,vol_ref,x_ref,y_ref,z_ref,const,I1,I2,I3,J,p1,p2,p3
Zone f=fepoint, n=3174, e=16683, et=brick, c=black
-24.9212 -154.188 112.055 -24.921169610717527 -154.18839343271944 112.05466229365737 -42.296976117959503 -1.2503200921569668e-06 -5.4536473925977322e-06 -4.9843389342278610e-06 -41.959583077436051 9.4651196602679732e-13 6.4265606725122382e-13 7.0309036370730382e-10 3.6893278751512392e-05 -2.9832707721214387e-13 -1.0211063874895785e-12 5.8970931353855659e-13 3.6720217358479842e-05 -24.903554063199991 -154.16086777200002 112.24023381839994 89.724962256112903 0.0000000000000000 0.0000000000000000 0.0000000000000000 0.0000000000000000 3.0060340923728641 3.0120737436311482 1.0060396468941175 1.0031801289622435 85.581841421617341 85.581775567650979 1.0030152418100715 
-37.465818066689316 -155.14847358700294 114.74936715836100 -37.465818066689302 -155.14847358700300 114.74936715836108 -39.835816616875675 4.2997919301320076e-06 -5.3058233331763928e-06 -2.6722291957732375e-06 0.0000000000000000 6.2381710933794808e-10 -6.1713545651023600e-09 -1.7608198823101345e-09 3.7843039725357996e-05 1.9862192632502019e-12 -3.1633357070079150e-12 1.4790631079012857e-12 0.0000000000000000 -37.438273663334591 -155.10473791080037 114.93291110338620 89.036758072416930 0.0000000000000000 0.0000000000000000 0.0000000000000000 0.0000000000000000 3.0090535153804141 3.0181298888170107 1.0090763869095882 1.0042840445769885 87.699997180753101 87.700008383873595 1.0045281278230076 
-31.563537167731162 -147.90422679978030 119.69147335034359 -31.563537167731166 -147.90422679978022 119.69147335034359 -38.212361023419000 1.5071652412559045e-06 -4.0149619781793978e-06 -1.4539169479153422e-07 0.0000000000000000 1.1219948581331354e-12 5.8480650877434925e-13 6.4362715157528783e-10 3.7093321681541300e-05 8.0839545408449636e-13 -1.2144919162362414e-12 8.3500090088433765e-13 0.0000000000000000 -31.542619574254449 -147.87907313389167 119.86135157363466 98.260374494724786 0.0000000000000000 0.0000000000000000 0.0000000000000000 0.0000000000000000 3.0073620484531074 3.0147376221847724 1.0073755766959556 1.0038260673064636 82.307075728277638 82.307013717406164 1.0036807564508541 
-28.667133514379529 -142.99068060528722 111.93871113998713 -28.667133514379540 -142.99068060528722 111.93871113998708 -37.713403478678039 2.1087332169643093e-06 -4.4776806275289929e-06 -3.2853028464570341e-06 0.0000000000000000 1.0453183457714841e-12 5.5091001205376244e-13 7.0399075458027472e-10 3.8324901567707440e-05 3.8142369107414968e-12 -1.1149260696758814e-12 9.7801910227267772e-13 0.0000000000000000 -28.647655777685479 -142.96738158566356 112.12452093910819 112.69127588814607 0.0000000000000000 0.0000000000000000 0.0000000000000000 0.0000000000000000 3.0078318882035595 3.0156810821218722 1.0078492042549538 1.0038534994479864 82.080201709675023 82.080277536800665 1.0039169046795278 
-24.279156587157232 -200.47715731281562 73.461668100227840 -24.279156587157232 -200.47715731281562 73.461668100227840 -64.880373192502859 9.7214411814822357e-08 -6.1546267385382807e-09 9.6387875801229825e-08 -65.033748589806592 9.2843267796016704e-13 1.0644228554124169e-12 1.0035623443371833e-09 3.6161309531942288e-05 1.7057357141178257e-14 -2.2548678081856092e-15 4.9575357537252107e-15 3.6157743822541144e-05 -24.261860196399997 -200.43215969199997 73.726546483199982 142.71380061529433 0.0000000000000000 0.0000000000000000 0.0000000000000000 0.0000000000000000 3.0058798097078201 3.0117676154389028 1.0058878088464882 1.0029361405819435 125.35863943621287 125.36004996329487 1.0029395844168016 
-24.174642197486580 -187.67924468310301 75.048264233148984 -24.174642197486580 -187.67924468310301 75.048264233148984 -64.339492092944980 6.2446044480981590e-07 -9.3346063011537558e-07 -2.8922276161872544e-07 -64.497699992981921 9.2593641087823642e-13 9.3871785344923353e-13 9.9122166030696235e-10 3.6170392712600531e-05 2.7452437567763337e-14 -1.6914625797892253e-14 -9.9732082123430034e-16 3.6174065853855975e-05 -24.157397762799999 -187.63907770800003 75.309882232799993 165.73632395326644 0.0000000000000000 0.0000000000000000 0.0000000000000000 0.0000000000000000 3.0058802920656844 3.0117685296196659 1.0058882406098120 1.0029361405819430 124.45467053305001 124.45518133841139 1.0029397969599472 
-34.908122523002376 -195.45443069953637 81.348006807295420 -34.908122523002390 -195.45443069953649 81.348006807295420 -64.118609152281195 1.8512037969124562e-07 -7.3976601164603187e-07 -1.4942551084659908e-06 0.0000000000000000 1.2145284777886900e-12 1.0073851475222995e-12 9.4217444956967711e-10 3.6180385007700968e-05 1.1970514844905770e-14 -2.7163067196717974e-14 -2.2257484260329812e-15 0.0000000000000000 -34.885542273181727 -195.41132893576267 81.596679120775832 139.46796289390394 0.0000000000000000 0.0000000000000000 0.0000000000000000 0.0000000000000000 3.0058314056720365 3.0116707372490574 1.0058393347029440 1.0028834259014141 123.97446182333857 123.97228451799229 1.0029154151963382 
-18.837192048724141 -194.57246886389018 81.163904362824582 -18.837192048724141 -194.57246886389018 81.163904362824567 -64.580785554403448 3.0822736079904277e-07 -4.5462722300274775e-07 -6.9117811903184005e-07 0.0000000000000000 7.8383653734359626e-13 9.9658822860782002e-13 9.4360053104480833e-10 3.6143808846429609e-05 2.0528443272825753e-14 -5.5626097835791865e-15 1.4201724386411028e-14 0.0000000000000000 -18.822600960987238 -194.52970000168264 81.412954998504986 111.95285379220412 0.0000000000000000 0.0000000000000000 0.0000000000000000 0.0000000000000000 3.0058904251096501 3.0117888356567746 1.0058984136503506 1.0029361405819448 125.15793963567060 125.15802722557270 1.0029448728864272 
-22.680483734386137 -103.21619526342022 42.911022972924442 -22.680483734386140 -103.21619526342022 42.911022972924449 -65.729854359916459 -1.0962558229076340e-06 1.2540750713364416e-06 -1.6889890976014887e-06 -66.042041417637719 8.8484081173234606e-13 1.9702642295449380e-13 1.2414292926976598e-09 3.4949256459598255e-05 -8.7036502555343855e-15 2.2873783925934599e-14 -1.9290877435467595e-14 3.4951888819845948e-05 -22.663982073999996 -103.20790935200000 43.238681550399988 69.202643319072678 0.0000000000000000 0.0000000000000000 0.0000000000000000 0.0000000000000000 3.0058683853594115 3.0117447294680177 1.0058763472029455 1.0029361405819450 126.90947578282719 127.10854767911549 1.0029338716035723 
-30.171886464113268 -110.78424946099491 46.668819517328473 -30.171886464113260 -110.78424946099493 46.668819517328473 -64.806542934862591 6.1865881779372708e-08 2.0184794587864812e-06 -2.2667264169254745e-06 -64.435919960938904 1.0841032932473738e-12 2.6731047930717011e-13 1.2121741388426699e-09 3.4957378556008295e-05 -3.2044327937195071e-14 4.6434369336798679e-14 5.9828482183511112e-15 3.4993406800432338e-05 -30.151660686400003 -110.77310694400001 46.988755992800002 74.715282964229786 0.0000000000000000 0.0000000000000000 0.0000000000000000 0.0000000000000000 3.0059004774006017 3.0118089528180696 1.0059084785201016 1.0029361405819459 125.16093252511966 125.68741707418145 1.0029498937133712 
-18.749697906751798 -103.57546984167567 49.694700877118926 -18.749697906751802 -103.57546984167563 49.694700877118926 -64.118542033675467 -1.3336023970706706e-06 1.0610521895438074e-06 -2.4282647793655247e-06 -64.175322041647306 7.7909553808375175e-13 2.0454818394632926e-13 1.1886128747917721e-09 3.4976320814402298e-05 -1.6229210123940169e-14 3.4382466336368831e-14 -2.7846666692117894e-14 3.4962158030054336e-05 -18.735150314000002 -103.56704831999998 50.008419303199993 79.719497061372692 0.0000000000000000 0.0000000000000000 0.0000000000000000 0.0000000000000000 3.0058710339523009 3.0117500256581722 1.0058789947971598 1.0029361405819439 124.03913429337582 124.23331900648229 1.0029351895492795 
-25.509787392650171 -98.494092711038505 50.670524808560316 -25.509787392650182 -98.494092711038491 50.670524808560309 -64.677806793414220 -2.5777919172340905e-08 5.3835869732298753e-07 -3.6746866297380861e-06 0.0000000000000000 9.6083384304446184e-13 1.5576082090795751e-13 1.1810141198331792e-09 3.4941096592701275e-05 -3.4777472473226309e-14 2.3749379247794133e-14 2.9770523451026936e-15 0.0000000000000000 -25.491879232152165 -98.487589184379729 50.982237960580505 72.292163684038698 0.0000000000000000 0.0000000000000000 0.0000000000000000 0.0000000000000000 3.0058638611384740 3.0117357059767942 1.0058718479576678 1.0029361405819435 124.90340181107146 123.32978662516140 1.0029316243148363 
-25.307530855248629 -104.23581233247060 108.56226102865890 -25.307530855248618 -104.23581233247066 108.56226102865897 -38.133493957243417 1.4359692935818727e-06 4.9003174067940918e-06 -1.4662338909312542e-06 0.0000000000000000 3.5414027203324165e-09 5.0488410118732736e-09 3.5841498240298596e-09 3.5417861373844366e-05 -2.3243051170773350e-12 5.5366697642943280e-13 8.4268089977274779e-12 0.0000000000000000 -25.283559732051039 -104.23282252886388 108.75695162467670 96.378087069502698 0.0000000000000000 0.0000000000000000 0.0000000000000000 0.0000000000000000 3.0073520021034166 3.0147141858158775 1.0073621757779778 1.0039389230310940 81.249281915842360 81.254973677170724 1.0036740245779265 
-25.939100811078074 -118.01814994232851 110.47264704985520 -25.939100811078077 -118.01814994232846 110.47264704985524 -34.237367071947283 2.8527983445344303e-06 1.0590547343628319e-06 -1.9952205977523305e-06 0.0000000000000000 3.9787477181453286e-09 4.5360683081204564e-09 6.6279708193440956e-09 3.6984124603815632e-05 -1.9928219664087191e-12 4.1236502310421762e-12 6.6451731238496848e-12 0.0000000000000000 -25.913646985361510 -118.01095136745833 110.66456878241424 88.846747377876298 0.0000000000000000 0.0000000000000000 0.0000000000000000 0.0000000000000000 3.0106827832948535 3.0213942770544686 1.0107115089103973 1.0049031804865818 80.968634337294574 80.967235536835645 1.0053418234609779 
-36.276582969741142 -112.71948706338529 111.85153827225656 -36.276582969741156 -112.71948706338527 111.85153827225663 -34.463587454685225 -8.9654538039052262e-07 4.1294610706923398e-06 2.8462117667639196e-06 0.0000000000000000 4.6566686056959675e-09 9.6096085065478250e-09 9.2513590349047222e-09 3.5424043159185872e-05 1.1281907792166528e-12 8.8854571008106038e-13 -1.2648185429419276e-12 0.0000000000000000 -36.236867317722961 -112.72601430119678 112.03758904139967 95.996160021407249 0.0000000000000000 0.0000000000000000 0.0000000000000000 0.0000000000000000 3.0111277471166424 3.0222868818390949 1.0111591560483857 1.0052582588402352 82.202416709738202 82.202389998796662 1.0055641561675017 
-33.413800387494888 -105.08792944245225 105.42556779047068 -33.413800387494909 -105.08792944245218 105.42556779047071 -38.099506187525748 2.7719010910669744e-07 5.7301844810985088e-06 -2.6529712089928315e-06 0.0000000000000000 4.5127684902248050e-09 1.0274129796836463e-08 4.6678823438600333e-09 3.6341174465073569e-05 -2.2367685322347655e-12 5.6051331896820907e-13 6.3108137016578145e-12 0.0000000000000000 -33.380789828628046 -105.09637623893835 105.63342596379557 85.433794965156210 0.0000000000000000 0.0000000000000000 0.0000000000000000 0.0000000000000000 3.0092346016411020 3.0184868796624653 1.0092522767173266 1.0044061537966800 83.951980521880174 83.951930648932816 1.0046154312234281 
-112.28046582625782 -160.69346063974223 124.50428291797726 -112.28046582625781 -160.69346063974220 124.50428291797722 -53.248944356074645 1.4821854340086207e-07 -4.7353695358980286e-07 -1.3558933932252852e-06 -53.182807116503788 3.2743842359739261e-12 7.0056113687932964e-13 6.0615773511685234e-10 3.5096001287014140e-05 -2.0627351729876939e-14 4.9837945006555803e-14 4.6536353679931377e-13 3.5065819445263839e-05 -112.21942232800005 -160.66347960400000 124.66427103520003 147.55923210393107 0.0000000000000000 0.0000000000000000 0.0000000000000000 0.0000000000000000 3.0064478042095044 3.0129068375410335 1.0064590387662999 1.0029361405819452 106.31266413712707 104.11087304893067 1.0032245538522013 
-99.587350983084931 -158.12370002425141 116.40821599874525 -99.587350983084903 -158.12370002425138 116.40821599874519 -53.765006181078391 -1.3729716120367980e-06 -8.7991827806675483e-07 -2.7790136468315527e-06 0.0000000000000000 2.9402556778190814e-12 6.6903080297997519e-13 6.6919952912414260e-10 3.5455250484428716e-05 -1.8512285008006004e-13 -1.6607053648531687e-13 1.4656131254797007e-13 0.0000000000000000 -99.532617471171264 -158.09468895943013 116.58484116745363 117.70414803503969 0.0000000000000000 0.0000000000000000 0.0000000000000000 0.0000000000000000 3.0044395393312393 3.0088747690945428 1.0044352209079255 1.0023513099085744 102.92229492328896 101.83987109189233 1.0022149755298033 
-104.39968836815129 -148.88050197916829 120.72400423220346 -104.39968836815129 -148.88050197916834 120.72400423220338 -52.662037399712261 -1.2022422443083529e-06 -9.2262695961342478e-07 -1.3031477296471907e-06 0.0000000000000000 3.0623663327400404e-12 5.9693569531837909e-13 6.3559352225794896e-10 3.5221440595126905e-05 -3.0955916937416050e-13 1.2427556415672184e-13 2.9943536681274764e-13 0.0000000000000000 -104.34256255272837 -148.85497981259945 120.89176065121424 119.29379793442074 0.0000000000000000 0.0000000000000000 0.0000000000000000 0.0000000000000000 3.0045712547209003 3.0091426477374581 1.0045713913926202 1.0023839078240926 101.31479989182073 101.96494681866442 1.0022828542793887 
-100.58563947468753 -162.31364730227753 124.40762869658022 -100.58563947468748 -162.31364730227747 124.40762869658013 -52.893150706146564 -8.3935134909088714e-07 -1.3882223253727732e-06 -1.1851444446387047e-06 0.0000000000000000 2.9643475174534473e-12 7.1420300229441135e-13 6.0692090242397967e-10 3.5155188948703978e-05 -2.5777853913173821e-13 -4.3677845929307258e-14 5.1906491529460468e-13 0.0000000000000000 -100.53040969477119 -162.28305471776312 124.56781543385799 141.51484144144280 0.0000000000000000 0.0000000000000000 0.0000000000000000 0.0000000000000000 3.0047091531461043 3.0094210837381330 1.0047119297565168 1.0024305912838236 101.95154900909331 101.21290261991179 1.0023530231491271 
-78.444750700891220 -148.82293842687511 89.215724407278046 -78.444750700891205 -148.82293842687517 89.215724407278017 -53.978268857363076 -3.4180814207154679e-06 -2.2722942453515344e-06 -1.1433307003892592e-06 -53.947043315957252 2.3708916774278781e-12 6.0213986574630951e-13 8.8091278716007092e-10 3.6195492806400961e-05 -4.4625175993167619e-13 -3.5317497304964252e-14 -1.2085733473919542e-13 3.6400721959062490e-05 -78.400527573600002 -148.79743798799998 89.448228916799977 108.06316173413846 0.0000000000000000 0.0000000000000000 0.0000000000000000 0.0000000000000000 3.0062563904333954 3.0125220866158253 1.0062657008683895 1.0029361405819441 107.20389974401776 107.20506967584318 1.0031280785620955 
-80.194456227647834 -162.56533190031317 87.537055620415799 -80.194456227647834 -162.56533190031317 87.537055620415771 -59.084535686592218 -2.0249490608313230e-06 -3.5911639646146386e-06 -2.0539856853721581e-06 -59.253539444729320 2.4163691880740856e-12 7.1742958795972811e-13 8.9398011215990891e-10 3.6001626546116729e-05 -2.1798999341575015e-13 -6.3022311976713312e-14 -1.3532214794247903e-13 3.6000119299788189e-05 -80.149363288800018 -162.53464431600008 87.773009718400019 109.57810873427631 0.0000000000000000 0.0000000000000000 0.0000000000000000 0.0000000000000000 3.0063504806305654 3.0127097661273416 1.0063592890367123 1.0029361405819452 116.39992973892164 116.38846973543554 1.0031748013842865 
-84.342633688769681 -160.21423352538966 94.752067650347755 -84.342633688769652 -160.21423352538969 94.752067650347740 -56.805219109019639 -1.5846252142606685e-06 -2.5041012115083652e-06 -3.7908384010265435e-06 0.0000000000000000 2.5311593099264229e-12 6.9253283663250887e-13 8.3781304116570254e-10 3.6045381466322524e-05 -1.8358362935227260e-13 -9.2848386567733882e-14 3.2440418590230190e-14 0.0000000000000000 -84.295478612813938 -160.18443337667750 94.973195224810283 106.11323630727971 0.0000000000000000 0.0000000000000000 0.0000000000000000 0.0000000000000000 3.0047319067433116 3.0094691636850692 1.0047372578602667 1.0024784620445433 108.63843528430927 108.63979057881625 1.0023655894353249 
-86.522249286702603 -151.41662855809486 92.408541468585611 -86.522249286702603 -151.41662855809491 92.408541468585568 -55.975264282065929 -1.7458677533356246e-06 -3.2500504703656960e-06 -3.6764567697415156e-06 0.0000000000000000 2.5948097837069643e-12 6.3529390081917835e-13 8.5605522670562095e-10 3.6067860296224347e-05 -7.3784558692592828e-14 -2.1881587653403188e-13 -3.1540526654048424e-14 0.0000000000000000 -86.474010682800568 -151.39014911596544 92.634484883397832 94.367740677547317 0.0000000000000000 0.0000000000000000 0.0000000000000000 0.0000000000000000 3.0053359387985932 3.0106789515414643 1.0053430158790100 1.0025783132974553 108.21168898662758 108.21172262385848 1.0026679432386121 
-26.036826691655381 -132.45021557248731 138.51342458753723 -26.036826691655389 -132.45021557248725 138.51342458753723 -42.915794512583155 1.4796171683949835e-06 -1.3175556332403767e-06 6.1453290928678822e-06 -43.878997100619543 9.7702228252227741e-13 4.5026829487149195e-13 4.9709003580034061e-10 3.3215527413206078e-05 7.4964090173538357e-13 -3.3425225116662082e-13 1.5744539324738055e-12 3.2753433275229920e-05 -26.018656529999991 -132.43089511199997 138.64462455200004 49.421240865332216 0.0000000000000000 0.0000000000000000 0.0000000000000000 0.0000000000000000 3.0058263482500438 3.0116606646259734 1.0058343204477751 1.0032132122123012 86.897390851679944 86.885336123164606 1.0029130895282068 
-32.516838411871639 -133.97670996457325 137.46960519387568 -32.516838411871625 -133.97670996457325 137.46960519387571 -42.243905413408314 -3.2474670589703394e-07 6.5216083356458525e-07 4.0348473318891421e-06 -40.038796482001665 1.1476583572367360e-12 4.6016315757846371e-13 5.0522658279206222e-10 3.3711120153703769e-05 3.5761801407512254e-13 5.9300133808591162e-13 3.3872768900345092e-12 3.1580696276067306e-05 -32.495446914399992 -133.95681332000001 137.60295016000006 48.530522504776933 0.0000000000000000 0.0000000000000000 0.0000000000000000 0.0000000000000000 3.0077575279779247 3.0155289026776320 1.0077713808778910 1.0039087023661151 90.006025153155349 90.014435839649906 1.0038776970511296 
-28.437567471492432 -136.45961093782279 140.18225395644046 -28.437567471492443 -136.45961093782282 140.18225395644046 -43.331924753270734 2.0693207598338487e-06 6.8176298833168145e-07 1.8960002216138206e-06 -44.363999218224571 1.0402356059868725e-12 4.7547035753048306e-13 4.8408538289024250e-10 3.2972189434631734e-05 1.0467604695596979e-12 -3.6316818820231806e-13 1.0228056553845462e-12 3.2508844897342581e-05 -28.418203856399998 -136.43877710800004 140.31002455199999 44.353383947079159 0.0000000000000000 0.0000000000000000 0.0000000000000000 0.0000000000000000 3.0063126102135636 3.0126336428074345 1.0063210352549792 1.0034503589707229 88.937763951732521 88.875315575845647 1.0031553670036946 
-26.786908532775772 -129.51995154010231 143.72784981030389 -26.786908532775779 -129.51995154010231 143.72784981030387 -44.385385137079879 4.8565756638085617e-07 5.8829683343632689e-07 1.3994901007409270e-06 0.0000000000000000 9.9445972290279627e-13 4.3758399681514954e-13 4.5649822810744927e-10 3.2690498072880967e-05 3.3803458706990466e-14 -1.3849586705332547e-13 7.5621673451794393e-13 0.0000000000000000 -26.768365491316434 -129.50173712462359 143.84833436668455 49.139845408488213 0.0000000000000000 0.0000000000000000 0.0000000000000000 0.0000000000000000 3.0063285475942156 3.0126675916910490 1.0063390484630295 1.0034311047500875 91.097031799897181 91.087455677559305 1.0031644094585912 
-40.093920132638175 -65.470109430274988 153.85370466554414 -40.093920132638189 -65.470109430274988 153.85370466554417 -51.526758283650537 -6.7445877222105793e-07 -1.1011387816513493e-08 1.0505640570214209e-06 -51.713894304195144 1.3484179051115319e-12 -1.4677842274934963e-13 3.7766273441874887e-10 3.3347814911410139e-05 1.7000393444461359e-13 -1.3820956293187792e-13 1.2859499293358530e-13 3.3333260940230924e-05 -40.068761925200000 -65.476070995999990 153.95338104800004 156.95717166164070 0.0000000000000000 0.0000000000000000 0.0000000000000000 0.0000000000000000 3.0056492535625945 3.0113063835766503 1.0056571337656963 1.0028247278950828 101.59304441578435 101.59021894395961 1.0028245928850945 
-52.458062561001768 -59.647616970215459 149.15448142223696 -52.458062561001761 -59.647616970215473 149.15448142223698 -51.882109350277382 -6.3688182930980700e-07 -2.0797708706615664e-07 9.1379733155208199e-07 -51.959232481953144 1.6814986902868867e-12 -1.9298798670241976e-13 4.1423925400962958e-10 3.3557932723540518e-05 5.4042220945734795e-14 -6.3299765764314296e-14 1.4403085387012351e-13 3.3538938133937934e-05 -52.426757905599978 -59.655776269200025 149.26381449600007 118.05125250056595 0.0000000000000000 0.0000000000000000 0.0000000000000000 0.0000000000000000 3.0060281095306465 3.0120653104765727 1.0060372050147388 1.0028476462399429 103.04888010366405 103.04917071267654 1.0030140894990980 
-35.195640442791273 -66.024017677728082 144.88147719974768 -35.195640442791273 -66.024017677728096 144.88147719974768 -50.817842887417704 -2.4056244457918589e-07 1.2362477817617596e-07 1.8674576621416455e-07 -50.807698884971430 1.2219981970762461e-12 -1.4140771886772541e-13 4.4750880778821051e-10 3.3431549060235766e-05 1.2686975748421300e-13 -1.7798060500077786e-13 3.1153529027400300e-13 3.3344083271881657e-05 -35.172917262399999 -66.029770167599992 144.99959110400002 155.12084301790807 0.0000000000000000 0.0000000000000000 0.0000000000000000 0.0000000000000000 3.0059922274774000 3.0119923525686376 1.0060001282288662 1.0029315918273247 101.18648347284785 101.17948375363927 1.0029955852134189 
-50.443131239875029 -66.584587288781876 142.07959896099172 -50.443131239875036 -66.584587288781890 142.07959896099177 -51.283190712508578 -6.5971578139647842e-07 2.5511356377711252e-07 6.0747994535041901e-07 0.0000000000000000 1.6257065138525206e-12 -1.3655396258194230e-13 4.6931086794543830e-10 3.3636690185470734e-05 1.6722690715831420e-13 -5.1528755401513785e-14 2.6601111146157701e-13 0.0000000000000000 -50.412828244765279 -66.590128188430739 142.20347059834828 136.07757377940416 0.0000000000000000 0.0000000000000000 0.0000000000000000 0.0000000000000000 3.0051869975696577 3.0103777394894582 1.0051907406477625 1.0026581277540361 100.20797977017581 100.21054028186954 1.0025919549161013 
-94.611979000836968 -158.74599710643326 77.370019754976838 -94.611979000836968 -158.74599710643321 77.370019754976838 -64.094080286720882 -8.3423506733152863e-07 -1.0099476641714282e-06 -1.5491872020947562e-06 -64.084122495867661 2.8111991901003108e-12 6.8220082360959101e-13 9.7314267755166384e-10 3.5747323710413260e-05 -6.9747629289581538e-15 -1.7470261706422190e-14 -1.2126615711316336e-14 3.5737417279515453e-05 -94.559718839999974 -158.71675115199997 77.626866652000004 109.98746742214213 0.0000000000000000 0.0000000000000000 0.0000000000000000 0.0000000000000000 3.0058438293432155 3.0116955730398880 1.0058517468010000 1.0029361405819452 123.97155681936648 123.96457068365338 1.0029215981774302 
-89.731973694330051 -158.49555662023167 82.191414658722692 -89.731973694330023 -158.49555662023164 82.191414658722721 -61.829163022105469 -2.9587231195980064e-06 -2.4161706291904061e-06 -3.2346473350915060e-06 -61.041214495702754 2.6726919288844182e-12 6.9056912965770333e-13 9.3560448277685282e-10 3.5811173851372392e-05 -1.2582573740544576e-13 -7.9173471526142044e-14 -1.2353867355290726e-13 3.5837671301078957e-05 -89.682139475999989 -158.46640519600001 82.438353807199988 112.88451412247700 0.0000000000000000 0.0000000000000000 0.0000000000000000 0.0000000000000000 3.0059065917993242 3.0118207993198900 1.0059142103327576 1.0029361405819437 119.87555627207028 119.87262220712404 1.0029527187706402 
-102.76618036355944 -154.97186002935740 86.370634980174728 -102.76618036355937 -154.97186002935732 86.370634980174742 -61.636445558275639 -6.9884595012463318e-07 -5.1457527659619336e-07 -3.6623067835085317e-06 0.0000000000000000 3.0269294015727870e-12 6.4475855210410761e-13 9.0306184752364505e-10 3.5774004154031279e-05 -2.3484170897382040e-14 -3.1561204855817069e-14 -1.0252403637431777e-14 0.0000000000000000 -102.70986659571734 -154.94403864466588 86.608986019839278 111.02505284862640 0.0000000000000000 0.0000000000000000 0.0000000000000000 0.0000000000000000 3.0059914677680797 3.0119913307294861 1.0059998661571290 1.0028556900377992 120.23226528009494 120.23254626357250 1.0029955025697317 
-100.46223310910375 -167.20635264318105 83.425672342090365 -100.46223310910368 -167.20635264318113 83.425672342090365 -63.238129868142330 -4.4777985946784681e-07 -6.6771668069245984e-07 -3.4793898237184416e-06 0.0000000000000000 2.9552089941820014e-12 7.4905012747983335e-13 9.2598828604906203e-10 3.5754461634674813e-05 -3.0314561983169518e-14 6.1852003850795372e-15 -4.1206328416236499e-14 0.0000000000000000 -100.40706467681501 -167.17391327890167 83.670075146830683 105.53983917324770 0.0000000000000000 0.0000000000000000 0.0000000000000000 0.0000000000000000 3.0058673845707053 3.0117427718622261 1.0058753904204816 1.0028720244751257 122.36301355404704 122.37114088703632 1.0029334007864612 
-114.68630172857618 -99.812852728210402 96.354429071413023 -114.68630172857617 -99.812852728210387 96.354429071413037 -57.398681707111230 -6.0694367559849400e-07 -7.9764033943972254e-07 -2.6438868301071159e-06 -57.709564923883256 3.3380070237333346e-12 1.6892390264366952e-13 8.2532991552142221e-10 3.5551500737778985e-05 6.5224054266885075e-14 1.3750837797526707e-13 1.9278962784784491e-13 3.5553764164439473e-05 -114.62406224400000 -99.805851428000011 96.572263865600007 85.211636250682801 0.0000000000000000 0.0000000000000000 0.0000000000000000 0.0000000000000000 3.0059962239140789 3.0119986408647890 1.0060024150858307 1.0026223801223251 112.56706570076699 112.56706133517584 1.0029966443793461 
-111.14804266538600 -91.101355068926068 100.01094769907705 -111.14804266538597 -91.101355068926068 100.01094769907704 -56.047573791707507 -2.8538931016305445e-07 -3.2147600003732347e-08 -2.9316278940963858e-06 -55.848720341830237 3.2432147245575745e-12 8.4560830559965439e-14 7.9686346410312581e-10 3.5420754681143556e-05 1.5378296794794080e-14 1.9739909335572793e-15 2.0035683251920205e-13 3.5368863099753761e-05 -111.08756211600000 -91.097641973600034 100.22126851279998 99.535403830130534 0.0000000000000000 0.0000000000000000 0.0000000000000000 0.0000000000000000 3.0065601109065772 3.0131310159217861 1.0065709109873482 1.0028251600518738 111.35071155187590 111.35069832535326 1.0032802452915488 
-112.96573220907727 -97.661994334341784 108.19330487393667 -112.96573220907727 -97.661994334341756 108.19330487393671 -54.209235858126959 -2.3999326871465691e-07 -1.1013818275770853e-07 -2.4289314363556961e-06 -54.160215624806945 3.2883105960390679e-12 1.5161136235342099e-13 7.3316264170841805e-10 3.5283227561652696e-05 1.2161660005454479e-13 2.5903773204512103e-13 4.1483974721776719e-13 3.5306470334526057e-05 -112.90434805199999 -97.655804887999992 108.38681131359999 128.09762094244454 0.0000000000000000 0.0000000000000000 0.0000000000000000 0.0000000000000000 3.0060221569850021 3.0120540386397701 1.0060318858544066 1.0028113829001419 107.21796933220895 107.21799933211145 1.0030114262801466 
-107.21319076011086 -103.84972634860530 100.34052145536457 -107.21319076011090 -103.84972634860527 100.34052145536454 -55.692946167820082 -2.8234144267040914e-06 -2.3403266415579513e-07 -3.1290556697203692e-06 0.0000000000000000 3.1477841166971388e-12 2.0339632755828063e-13 7.9429107735506942e-10 3.5599781743647459e-05 -1.5972399793918125e-13 2.2544932413532989e-13 5.8291513408103516e-14 0.0000000000000000 -107.15466629968294 -103.84120130723400 100.55016500991876 102.24201981555134 0.0000000000000000 0.0000000000000000 0.0000000000000000 0.0000000000000000 3.0047091526608791 3.0094168363085179 1.0047076784027851 1.0023418034330827 106.66100282276014 106.66100324485390 1.0023509021521455 
-26.913539813825395 -115.38030377261720 103.16150549632721 -26.913539813825412 -115.38030377261715 103.16150549632721 -36.247644643256713 2.9764173131693744e-06 2.3085029140723457e-06 -4.7227058999750942e-06 0.0000000000000000 4.4975655918054150e-09 5.3483708130984621e-09 1.9757492088312876e-09 3.9403238820853849e-05 1.8243978938093195e-12 3.6685884621892880e-12 6.4973713141187716e-12 0.0000000000000000 -26.889884864405381 -115.37486796036181 103.37575244326078 96.382960025775517 0.0000000000000000 0.0000000000000000 0.0000000000000000 0.0000000000000000 3.0089226154498765 3.0178651569294463 1.0089425479343612 1.0044937221891372 80.977200235416134 80.984244517476597 1.0044612734379568 
-109.62805910494350 -103.63021554975799 152.09415773214735 -109.62805910494352 -103.63021554975802 152.09415773214735 -52.646192693118046 9.4507092371877457e-08 2.7552420203622566e-07 8.3576395623012026e-08 -52.755829527388421 3.1990902982226284e-12 2.0522125665500823e-13 3.9135128471201597e-10 3.3850442363644389e-05 2.9041750720155433e-14 -1.2369558794181177e-14 1.6359275060368921e-13 3.3823636009471628e-05 -109.56833416800004 -103.62177336400003 152.19744990400002 70.302883591683823 0.0000000000000000 0.0000000000000000 0.0000000000000000 0.0000000000000000 3.0055879181265581 3.0111818670378190 1.0055939504223961 1.0027899813870140 103.46946842122406 103.46967357031896 1.0027931021024590 