# For a description of the Tecplot format see the Tecplot User's guide.
#
Variables=x,y,z,s_u,s_v,s_w,s_p,mono_f_vel_u,mono_f_vel_v,mono_f_vel_w,const,u_nu,v_nu,w_nu,p_nu,x_nu,y_nu,z_nu,const,u_ref,v_ref,w_ref,vol_ref,x_ref,y_ref,z_ref,const,I1,I2,I3,J,p1,p2,p3
Zone f=fepoint, n=3174, e=16683, et=brick, c=black
-25.1788 -154.590 109.273 -25.178810296406127 -154.59022527902621 109.27278822884222 -200.32224319147295 -1.6224900646713627e-05 -6.6176191332352344e-05 -6.9022640278298158e-05 -193.66947993063752 2.8784400377124264e-08 1.9662693251376595e-08 2.1794415959952577e-05 0.0081518018233130880 1.8681757732820743e-10 5.0618331720089619e-10 4.8347690539549287e-10 0.0080785816748024375 -24.903554063199991 -154.16086777200002 112.24023381839994 89.724962256112903 0.0000000000000000 0.0000000000000000 0.0000000000000000 0.0000000000000000 3.0976786435283703 3.1969487037724775 1.0992608925859815 1.0498540068094429 542.52238803943692 542.52232370472473 1.0484328881899789 
-37.843680660325937 -155.74823744847242 111.98555365591248 -37.843680660325951 -155.74823744847251 111.98555365591253 -170.09401687098676 5.3173128636277236e-05 -5.6073273374024173e-05 -3.5337698289833384e-05 0.0000000000000000 6.4244286712571901e-08 5.8349928559978201e-06 2.2015226985204072e-05 0.0081590048500180621 -3.7560392424817432e-11 -4.4726432955515292e-11 4.4804284570752288e-10 0.0000000000000000 -37.438273663334591 -155.10473791080037 114.93291110338620 89.036758072416930 0.0000000000000000 0.0000000000000000 0.0000000000000000 0.0000000000000000 3.1339280953360595 3.2727889246291824 1.1389049160986355 1.0635885518744621 563.34845864987039 563.34847017155687 1.0672279218245999 
-31.869472769274662 -148.27143120981921 117.14485514366802 -31.869472769274672 -148.27143120981924 117.14485514366798 -149.48107538982239 1.7035551018121795e-05 -4.0300709133258161e-05 -1.1449867419518192e-05 0.0000000000000000 3.4180054633847767e-08 1.7968289078851285e-08 1.9951318862787559e-05 0.0079516403186788622 -5.8867950676083813e-11 3.6137448108434529e-10 -3.7613801935114173e-11 0.0000000000000000 -31.542619574254449 -147.87907313389167 119.86135157363466 98.260374494724786 0.0000000000000000 0.0000000000000000 0.0000000000000000 0.0000000000000000 3.1120577259406876 3.2272053900297251 1.1151615514297861 1.0575284349517280 496.46083044403116 496.46078405239319 1.0559732164444779 
-28.952010123098585 -143.33081006368386 109.15326514076685 -28.952010123098596 -143.33081006368377 109.15326514076692 -148.02430598791645 1.9725878580124910e-05 -5.0977353583374619e-05 -3.3672834678771635e-05 0.0000000000000000 3.1827280491669718e-08 1.6643441957953087e-08 2.1822400050552911e-05 0.0080580898229039369 4.4613217075327439e-10 5.7818329236257107e-10 4.4539100993162355e-10 0.0000000000000000 -28.647655777685479 -142.96738158566356 112.12452093910819 112.69127588814607 0.0000000000000000 0.0000000000000000 0.0000000000000000 0.0000000000000000 3.1177838002060310 3.2392943101627347 1.1215423937904383 1.0578084855894980 500.95409352162090 500.95407787345590 1.0590290652018757 
-24.532129364199626 -201.13405260902746 69.490917173099533 -24.532129364199623 -201.13405260902749 69.490917173099533 -523.26028903785311 2.6213563884521739e-06 1.6534022104024640e-07 1.7927750693989395e-06 -525.73221044725494 2.8262887488694772e-08 3.2143631534253814e-08 3.1108596346918198e-05 0.010417993010406591 1.8786455429947579e-11 -1.5346302785720865e-11 -1.7331909872337323e-11 0.010418894943667935 -24.261860196399997 -200.43215969199997 73.726546483199982 142.71380061529433 0.0000000000000000 0.0000000000000000 0.0000000000000000 0.0000000000000000 3.0944753674181347 3.1909783657800621 1.0965154100289949 1.0470869324095888 1109.5475491769057 1109.5475491752752 1.0471464493658551 
-24.426855077758514 -188.26562006317766 71.126389208802706 -24.426855077758514 -188.26562006317769 71.126389208802706 -515.21364160675796 1.0432659962874263e-05 -1.4389376889763336e-05 -4.4611982002909465e-06 -517.99151801289042 2.8177988456445930e-08 2.8692888287551455e-08 3.0725681194887500e-05 0.010365752090443107 -7.7345068933487829e-11 1.3775877449450302e-10 8.9343623166440129e-11 0.010397281997704472 -24.157397762799999 -187.63907770800003 75.309882232799993 165.73632395326644 0.0000000000000000 0.0000000000000000 0.0000000000000000 0.0000000000000000 3.0944820998289742 3.1909781982553942 1.0965082699716258 1.0470869324095886 1096.1114548734988 1096.1114547662132 1.0471423872996823 
-35.238375729212578 -196.08364943084294 77.620198564795459 -35.238375729212549 -196.08364943084305 77.620198564795416 -510.86516165871660 4.4125890074677057e-06 -1.1233485515267026e-05 -2.2596511653700116e-05 0.0000000000000000 3.6896893804150288e-08 3.0789327087887841e-08 2.9205277292554392e-05 0.010389884350819143 -8.3417161784579186e-12 1.6098387483641373e-10 3.7255217799719639e-11 0.0000000000000000 -34.885542273181727 -195.41132893576267 81.596679120775832 139.46796289390394 0.0000000000000000 0.0000000000000000 0.0000000000000000 0.0000000000000000 3.0936457768865790 3.1892977899433004 1.0956644414022205 1.0462356002860094 1086.9275714015341 1086.9275712441229 1.0467393941548826 
-19.050597726051983 -195.19682774996372 77.430424750660222 -19.050597726051983 -195.19682774996366 77.430424750660222 -519.25867633045596 5.2631334496152137e-06 -7.0837900322060925e-06 -1.0559612160192029e-05 0.0000000000000000 2.3842329957557418e-08 3.0551531748912453e-08 2.9249709277756608e-05 0.010360156451681616 -4.3231143295992962e-11 1.2000123373412270e-10 3.0536571188943927e-11 0.0000000000000000 -18.822600960987238 -194.52970000168264 81.412954998504986 111.95285379220412 0.0000000000000000 0.0000000000000000 0.0000000000000000 0.0000000000000000 3.0946454952853015 3.1913154822378389 1.0966823505272096 1.0470869324095899 1107.3172389244248 1107.3172392828017 1.0472265350865042 
-22.921832979571640 -103.33715668622672 37.999143846762166 -22.921832979571636 -103.33715668622673 37.999143846762166 -508.87295403466084 -1.5185538225290840e-05 1.7456230772886769e-05 -2.3767664019784336e-05 -513.66409770226517 2.6964269220219890e-08 5.9189548817784043e-09 3.8481805552770261e-05 0.010647310361559376 5.5291661264146383e-11 -3.0095004576833956e-10 4.1787907140023077e-10 0.010754596410661510 -22.663982073999996 -103.20790935200000 43.238681550399988 69.202643319072678 0.0000000000000000 0.0000000000000000 0.0000000000000000 0.0000000000000000 3.0942897400683544 3.1905971762901477 1.0963197606238400 1.0470869324095884 1085.5038077083873 1085.5579492595482 1.0470532871319664 
-30.467703737657938 -110.94691288339904 41.872701229584962 -30.467703737657931 -110.94691288339907 41.872701229584955 -496.01552137722530 1.3498496417466241e-06 2.7605090673283109e-05 -3.2281423343232219e-05 -491.64013934892415 3.3049605094315204e-08 7.9595439128610224e-09 3.7574884604651970e-05 0.010481614441199501 2.0680016837749462e-10 -4.1026112310488112e-10 4.6356165957595713e-10 0.010524555497229514 -30.151660686400003 -110.77310694400001 46.988755992800002 74.715282964229786 0.0000000000000000 0.0000000000000000 0.0000000000000000 0.0000000000000000 3.0947529207917306 3.1915316507934857 1.0967910727533414 1.0470869324095879 1061.0223742877936 1060.9802313654213 1.0472790634041131 
-18.962467437075119 -103.69841096334886 44.991796407373812 -18.962467437075123 -103.69841096334882 44.991796407373819 -486.50554376744941 -1.8465442045762218e-05 1.4208957420417229e-05 -3.4386789427250911e-05 -487.36072900744085 2.3771258919613733e-08 6.0158318326841709e-09 3.6844606857044937e-05 0.010361628740019868 1.2900628355255309e-10 -3.4773886157956158e-10 4.3094558347423897e-10 0.010386412294513120 -18.735150314000002 -103.56704831999998 50.008419303199993 79.719497061372692 0.0000000000000000 0.0000000000000000 0.0000000000000000 0.0000000000000000 3.0943270340003557 3.1906713685405790 1.0963566468753148 1.0470869324095888 1045.5179564241485 1045.5318782193133 1.0470705027546554 
-25.771707764159387 -98.589034087793749 45.997681092535622 -25.771707764159377 -98.589034087793749 45.997681092535608 -493.32107330657630 5.9739990312547423e-07 6.5674012198346022e-06 -5.3195333649262727e-05 0.0000000000000000 2.9262538239760442e-08 4.6457322433468562e-09 3.6609097787909668e-05 0.010490499569304281 8.0081270144968384e-11 -2.1074945248406474e-10 4.4606682057338246e-10 0.0000000000000000 -25.491879232152165 -98.487589184379729 50.982237960580505 72.292163684038698 0.0000000000000000 0.0000000000000000 0.0000000000000000 0.0000000000000000 3.0942469646088235 3.1905191695148662 1.0962846463850331 1.0470869324095893 1056.0778332778279 1056.0569496139278 1.0470355822692019 
-25.632800806631415 -104.30800020165745 105.65081706911276 -25.632800806631401 -104.30800020165739 105.65081706911272 -144.82248670434791 1.6308216534115173e-05 5.4787570143142979e-05 -8.5791231551151414e-06 0.0000000000000000 5.2466460505392166e-07 -2.0476413211385919e-06 2.4363073833769374e-05 0.0077010436058234794 -5.3901087396932195e-10 -7.1152030860604007e-10 1.5822909376279787e-09 0.0000000000000000 -25.283559732051039 -104.23282252886388 108.75695162467670 96.378087069502698 0.0000000000000000 0.0000000000000000 0.0000000000000000 0.0000000000000000 3.1127815053605032 3.2282849307114292 1.1154990918812546 1.0591903909101845 478.03433910120356 478.03421729770031 1.0561306240853663 
-26.280051040649933 -118.16441099742688 107.60041797706972 -26.280051040649933 -118.16441099742681 107.60041797706978 -107.84267628271918 2.5103940908216991e-05 4.4042938985572545e-06 -2.0494230482142941e-05 0.0000000000000000 5.8666967315012826e-07 -8.8346017642492726e-07 2.4371868813495774e-05 0.0075557773708591043 -7.8409487177591274e-10 5.0446541725536446e-10 1.2768501742303974e-09 0.0000000000000000 -25.913646985361510 -118.01095136745833 110.66456878241424 88.846747377876298 0.0000000000000000 0.0000000000000000 0.0000000000000000 0.0000000000000000 3.1498765210816329 3.3053685172160421 1.1555393592756646 1.0698903261581438 485.57404278145759 485.57329893412503 1.0750028835947321 
-36.788200267743086 -112.71546696367058 109.04630663495720 -36.788200267743072 -112.71546696367065 109.04630663495713 -110.57521065445242 -1.6814247322716715e-05 3.2171682029673624e-05 2.0386344650731404e-05 0.0000000000000000 2.7687124094263975e-06 -3.4596820032348705e-06 2.4412689520681813e-05 0.0073578043783412220 4.7990369065508999e-10 -4.5966615106273553e-10 -4.5037243749292411e-10 0.0000000000000000 -36.236867317722961 -112.72601430119678 112.03758904139967 95.996160021407249 0.0000000000000000 0.0000000000000000 0.0000000000000000 0.0000000000000000 3.1538444482767565 3.3137012769235530 1.1599170367089944 1.0738486107695764 498.81893882728025 498.81859729762630 1.0770006421495921 
-33.846489754085624 -105.04384847646341 102.34160826310070 -33.846489754085617 -105.04384847646347 102.34160826310065 -142.65161603954436 9.5977453985538805e-07 6.2540081177448953e-05 -1.3004697174966320e-05 0.0000000000000000 2.1407470210636027e-06 -4.7443759622087052e-06 2.8663822373607942e-05 0.0078265517987157977 -4.0091592444476141e-10 -8.2225155015931075e-10 1.0793409031674598e-09 0.0000000000000000 -33.380789828628046 -105.09637623893835 105.63342596379557 85.433794965156210 0.0000000000000000 0.0000000000000000 0.0000000000000000 0.0000000000000000 3.1373593533856625 3.2788834513379475 1.1415402371295658 1.0654580105778801 507.19116950217045 507.19162125188626 1.0684217784747332 
-113.17327308827039 -161.13113714346920 122.10592576378707 -113.17327308827042 -161.13113714346920 122.10592576378711 -326.82387720148205 2.6542179078174454e-06 -8.3607751385603393e-06 -2.1151460539929073e-05 -325.75707764403813 9.9747142365269603e-08 2.1416676876384599e-08 1.8789777048056067e-05 0.0084880863073405980 -3.3705183094913389e-11 1.0429117210742745e-10 1.8369524980345709e-10 0.0084860053281876659 -112.21942232800005 -160.66347960400000 124.66427103520003 147.55923210393107 0.0000000000000000 0.0000000000000000 0.0000000000000000 0.0000000000000000 3.1017939393014546 3.2063129602465987 1.1045396646138530 1.0470869324095877 782.41387423428398 782.39894212870570 1.0510122885276725 
-100.38786992951934 -158.54721646075959 113.76045537542353 -100.38786992951931 -158.54721646075956 113.76045537542358 -336.37145253541212 -1.9052286806192419e-05 -1.4365904498035037e-05 -4.0498884709533427e-05 0.0000000000000000 8.9436412539778409e-08 2.0723778471065657e-08 2.0743712712878452e-05 0.0085803763879975046 2.2824283733878325e-10 6.9159583871906703e-11 -1.2594411600422436e-11 0.0000000000000000 -99.532617471171264 -158.09468895943013 116.58484116745363 117.70414803503969 0.0000000000000000 0.0000000000000000 0.0000000000000000 0.0000000000000000 3.0763936794838531 3.1521925034942759 1.0757703770190545 1.0390117530246357 746.34320695738313 746.34747700658511 1.0371585630498830 
-105.23519656007421 -149.25308592614962 118.20919366576733 -105.23519656007421 -149.25308592614962 118.20919366576740 -317.67592211819033 -1.6370117542646749e-05 -1.6126934696752327e-05 -1.8688865866301572e-05 0.0000000000000000 9.3345514803888641e-08 1.8231523624123728e-08 1.9702123924325573e-05 0.0084506310438455523 1.0104271435881310e-10 1.9621283356329091e-10 9.8324674498049317e-12 0.0000000000000000 -104.34256255272837 -148.85497981259945 120.89176065121424 119.29379793442074 0.0000000000000000 0.0000000000000000 0.0000000000000000 0.0000000000000000 3.0774295341070252 3.1551985376672040 1.0777645337675350 1.0396640706417897 716.69131816531944 716.69542463313871 1.0381101612007839 
-101.39341671544049 -162.76025146716884 122.00629405982185 -101.39341671544055 -162.76025146716890 122.00629405982183 -322.96275099516157 -1.0607856051703581e-05 -2.2204348984587928e-05 -1.9233954871419578e-05 0.0000000000000000 9.0247323544789815e-08 2.1853510778768740e-08 1.8813103948467358e-05 0.0084726196776040100 8.0571979793395633e-11 1.9798182593196037e-10 1.0578593937079837e-10 0.0000000000000000 -100.53040969477119 -162.28305471776312 124.56781543385799 141.51484144144280 0.0000000000000000 0.0000000000000000 0.0000000000000000 0.0000000000000000 3.0794781081943667 3.1598579748927640 1.0803782724773183 1.0402429749280968 729.68228286877400 729.68465896252144 1.0393823244164588 
-79.091547334788970 -149.19520518331157 85.730285216708907 -79.091547334788984 -149.19520518331157 85.730285216708893 -346.23294383782400 -4.7585450188618107e-05 -3.3734196642875261e-05 -1.6251401771723527e-05 -346.50623394319842 7.2262087688623731e-08 1.8215984609604163e-08 2.7306452330400077e-05 0.0091514612831507941 4.6750162284932533e-10 5.7670451701081810e-10 2.7878950067524033e-10 0.0092417521318191968 -78.400527573600002 -148.79743798799998 89.448228916799977 108.06316173413846 0.0000000000000000 0.0000000000000000 0.0000000000000000 0.0000000000000000 3.1008392655289869 3.2040133559660409 1.1031919699438839 1.0470869324095899 815.79466424988084 815.79171618771409 1.0503615101703017 
-80.853974512441951 -163.01332291454938 83.999904182017801 -80.853974512441951 -163.01332291454941 83.999904182017801 -420.97114020564197 -2.7704381259713705e-05 -5.5151640619367362e-05 -3.0074929597426932e-05 -423.47055363584718 7.3683388765455327e-08 2.1921379600442492e-08 2.7711588656664791e-05 0.0097151381319662816 -1.0992025241639354e-10 7.5490939128249184e-10 3.6957905773323373e-10 0.0098693657354357901 -80.149363288800018 -162.53464431600008 87.773009718400019 109.57810873427631 0.0000000000000000 0.0000000000000000 0.0000000000000000 0.0000000000000000 3.1017383188524597 3.2056833032485184 1.1039587881767010 1.0470869324095882 947.97190547118635 947.97227194164759 1.0507387665743022 
-85.032312286090402 -160.64926935974404 91.437178336020906 -85.032312286090431 -160.64926935974390 91.437178336020949 -386.90556159808898 -2.0019797473156155e-05 -3.8010178535161498e-05 -5.6095034503115992e-05 0.0000000000000000 7.7052984367997901e-08 2.1287463791708205e-08 2.5970290134402770e-05 0.0094608368637201807 2.9711801955316719e-10 2.9857261793655244e-10 3.6747062868787456e-10 0.0000000000000000 -84.295478612813938 -160.18443337667750 94.973195224810283 106.11323630727971 0.0000000000000000 0.0000000000000000 0.0000000000000000 0.0000000000000000 3.0766267609104427 3.1547189509052900 1.0780978536336645 1.0399221386051691 832.25862987551216 832.25775831424005 1.0382555972253156 
-87.227775298517429 -151.80318723977192 89.021458635410312 -87.227775298517386 -151.80318723977192 89.021458635410283 -373.18061747698721 -2.2720371161860320e-05 -4.9310256562264618e-05 -5.4102502166079415e-05 0.0000000000000000 7.8823513202652684e-08 1.8915324750956583e-08 2.6535885687017924e-05 0.0093065276680538104 2.1622561733589252e-10 4.7958486782319480e-10 2.0172486090005488e-10 0.0000000000000000 -86.474010682800568 -151.39014911596544 92.634484883397832 94.367740677547317 0.0000000000000000 0.0000000000000000 0.0000000000000000 0.0000000000000000 3.0858323733114381 3.1735036227477451 1.0876837351081019 1.0415665167327093 824.02644051794766 824.02745217120662 1.0429200830607026 
-26.302579027954142 -132.73226425383328 136.54662618487407 -26.302579027954149 -132.73226425383331 136.54662618487413 -197.44804937066496 1.6859382813474858e-05 -1.4501348683911894e-05 6.6000399440917468e-05 -208.20049336208788 2.9690656613845512e-08 1.3801389031620204e-08 1.5408757374046900e-05 0.0078190080597546965 6.8852822334585821e-11 -8.8989840831029082e-12 -3.8148781692683858e-10 0.0077140677049905440 -26.018656529999991 -132.43089511199997 138.64462455200004 49.421240865332216 0.0000000000000000 0.0000000000000000 0.0000000000000000 0.0000000000000000 3.0933457685571759 3.1885974173907248 1.0952648225407453 1.0502051462081448 539.92386975487011 539.91928808654302 1.0465712842154498 
-32.829705217232899 -134.26717003765384 135.47065140261174 -32.829705217232906 -134.26717003765390 135.47065140261171 -188.51035599985690 -1.7841365455411159e-06 1.0926038264237527e-05 3.7601932763079735e-05 -158.07158110697262 3.4954430336298081e-08 1.4212982679673303e-08 1.5660676737638823e-05 0.0078839419408572673 1.9408684498046895e-10 1.1782077229307313e-10 5.5795253530120813e-11 0.0084666240728816702 -32.495446914399992 -133.95681332000001 137.60295016000006 48.530522504776933 0.0000000000000000 0.0000000000000000 0.0000000000000000 0.0000000000000000 3.1175244868147463 3.2385172994551312 1.1210188060348354 1.0586596251400291 573.97357598092651 573.97320480494466 1.0587403662237203 
-28.720774965602995 -136.76375245829846 138.26686469331941 -28.720774965602985 -136.76375245829848 138.26686469331938 -198.81770344940043 2.0011922060822987e-05 1.3133334652077398e-05 2.0819527687316432e-05 -208.69294349518395 3.1640799216803295e-08 1.4882441057295637e-08 1.5005995725125842e-05 0.0078742862248325860 1.0574408901499035e-10 -2.2601252722135058e-10 9.8167774794012373e-12 0.0077845497803182709 -28.418203856399998 -136.43877710800004 140.31002455199999 44.353383947079159 0.0000000000000000 0.0000000000000000 0.0000000000000000 0.0000000000000000 3.0983695390335555 3.1987598152884829 1.1004003501178941 1.0526679825514484 554.12204437259265 554.12385572997493 1.0489876567563883 
-27.058114517805993 -129.78585368413380 141.92168443514149 -27.058114517805997 -129.78585368413374 141.92168443514143 -212.42985452846463 8.2816870079401124e-06 1.0232343615449917e-05 1.2785881734927476e-05 0.0000000000000000 3.0299954253965034e-08 1.3011304367260834e-08 1.4150288102143804e-05 0.0078713534403627647 4.2092326219105745e-11 -4.0105185039325365e-11 1.2522252962735731e-10 0.0000000000000000 -26.768365491316434 -129.50173712462359 143.84833436668455 49.139845408488213 0.0000000000000000 0.0000000000000000 0.0000000000000000 0.0000000000000000 3.1006784434784240 3.2039919380985400 1.1033316267563755 1.0528634243704185 586.95730739369492 586.94934972287911 1.0503844752284974 
-40.461877915875810 -65.383079840447110 152.35947141174552 -40.461877915875803 -65.383079840447095 152.35947141174555 -298.85855162261066 -7.8454815035050112e-06 -4.3769267694162643e-07 1.3683964819342810e-05 -301.22200195838349 4.1109361789692933e-08 -4.2585913684334287e-09 1.1706475678607831e-05 0.0081327583135299905 6.8247309990359451e-11 -5.7194430056585509e-11 -4.7561789434347319e-11 0.0081553503465888900 -40.068761925200000 -65.476070995999990 153.95338104800004 156.95717166164070 0.0000000000000000 0.0000000000000000 0.0000000000000000 0.0000000000000000 3.0920549209731059 3.1861259611894392 1.0940852975616697 1.0457072588659231 714.08644744222158 714.07982210206080 1.0459875349347709 
-52.915916787498624 -59.528503892097518 147.51548620058449 -52.915916787498638 -59.528503892097540 147.51548620058449 -303.29358391265851 -8.4657375248832837e-06 -2.0035130221207077e-06 1.0431445254025579e-05 -304.44845855903611 5.1152867205916941e-08 -5.8285143933467517e-09 1.2840604129316093e-05 0.0081795109666207254 8.0562069014804533e-11 -3.3671381522807713e-11 -2.4083831638470485e-11 0.0081941717784265334 -52.426757905599978 -59.655776269200025 149.26381449600007 118.05125250056595 0.0000000000000000 0.0000000000000000 0.0000000000000000 0.0000000000000000 3.0964563287668172 3.1951671875778120 1.0987263125944895 1.0459233736372286 730.91649035799287 730.93806420709802 1.0482071033271634 
-35.527984116537908 -65.940040270259033 143.11084990448043 -35.527984116537922 -65.940040270259033 143.11084990448040 -290.51549863168714 -2.2890792628141894e-06 1.3171591421849317e-06 6.4242853755457148e-07 -290.34346006488892 3.7130440652677350e-08 -4.1092420577371058e-09 1.3871867273529405e-05 0.0081112129540063822 2.9316470910913527e-11 -3.6513315892312749e-11 6.8788091529994851e-11 0.0081016996412012609 -35.172917262399999 -66.029770167599992 144.99959110400002 155.12084301790807 0.0000000000000000 0.0000000000000000 0.0000000000000000 0.0000000000000000 3.0954103144576943 3.1928105080699529 1.0974124455889547 1.0468788841007641 707.24815369557643 707.24173410026401 1.0475754024670094 
-50.886335428148016 -66.503698769563925 140.22265837807490 -50.886335428147987 -66.503698769563925 140.22265837807484 -296.04599207481465 -8.4374472747065865e-06 4.7889976457129714e-06 6.3286006199857368e-06 0.0000000000000000 4.9516119191017616e-08 -3.9580865807131715e-09 1.4548083234089402e-05 0.0081554842757784792 9.3552759799863347e-11 -9.3563035647077956e-11 5.4690251695889352e-11 0.0000000000000000 -50.412828244765279 -66.590128188430739 142.20347059834828 136.07757377940416 0.0000000000000000 0.0000000000000000 0.0000000000000000 0.0000000000000000 3.0850950560059922 3.1713278717490900 1.0862314112519362 1.0433111138953441 694.79379552838316 694.79628013564752 1.0422157562099696 
-95.376323319901374 -159.17294256604214 73.519667593200239 -95.376323319901374 -159.17294256604217 73.519667593200225 -491.28885826153413 -1.1635783717326948e-05 -1.6293858761877210e-05 -2.3416718191839737e-05 -491.37679340442179 8.5394874324573613e-08 2.0891560148506017e-08 3.0165339861554230e-05 0.0099430197444967949 -4.7002751831074291e-11 1.6289158443285036e-10 2.2064605557170416e-10 0.010036354877190855 -94.559718839999974 -158.71675115199997 77.626866652000004 109.98746742214213 0.0000000000000000 0.0000000000000000 0.0000000000000000 0.0000000000000000 3.0939418683518336 3.1898926201182438 1.0959631290734850 1.0470869324095902 1053.5967934182265 1053.5967714764704 1.0468810271506324 
-90.460836772161372 -158.92112208588409 78.489588025087514 -90.460836772161400 -158.92112208588409 78.489588025087500 -458.46807805191327 -4.1728228007867101e-05 -3.7603877231709391e-05 -4.7894241859262035e-05 -447.47463891084317 8.1430795370596165e-08 2.0824027613386420e-08 2.9001726034039166e-05 0.0097996085110671326 5.5493163046513352e-11 3.6197076153962224e-10 5.1363611512711859e-10 0.0098737669247654456 -89.682139475999989 -158.46640519600001 82.438353807199988 112.88451412247700 0.0000000000000000 0.0000000000000000 0.0000000000000000 0.0000000000000000 3.0949833106263660 3.1919054999177967 1.0969334464284373 1.0470869324095893 994.20758720956246 994.20760367218645 1.0473399129772578 
-103.58981174635474 -155.37800898582813 82.797551359268240 -103.58981174635480 -155.37800898582819 82.797551359268240 -453.54503558250701 -9.5243387270629769e-06 -8.8204230819355255e-06 -5.4687464663132488e-05 0.0000000000000000 9.2018600336696275e-08 1.9873931389469138e-08 2.7993097057255056e-05 0.0096861616115667942 1.2062286209539515e-10 1.1036646831265185e-10 1.6661393751689508e-10 0.0000000000000000 -102.70986659571734 -154.94403864466588 86.608986019839278 111.02505284862640 0.0000000000000000 0.0000000000000000 0.0000000000000000 0.0000000000000000 3.0960318200721288 3.1941790511160284 1.0981599436802443 1.0458706941674409 995.51667203517013 995.51682913486445 1.0479433617305238 
-101.26911309447441 -167.67991692104607 79.761867645663116 -101.26911309447446 -167.67991692104616 79.761867645663145 -478.84375522403536 -5.4744588823858637e-06 -1.1177034885058885e-05 -5.2293706503311213e-05 0.0000000000000000 9.0147085504699298e-08 2.3172745611255152e-08 2.8703845575961395e-05 0.0098972765698724392 7.4326442751244820e-12 1.9120067745037169e-10 7.2552052480158706e-11 0.0000000000000000 -100.40706467681501 -167.17391327890167 83.670075146830683 105.53983917324770 0.0000000000000000 0.0000000000000000 0.0000000000000000 0.0000000000000000 3.0942060171221883 3.1904358686279104 1.0962422539395187 1.0461053772863069 1029.8275726442619 1029.8273871521405 1.0470174603427795 
-115.59660119370245 -99.915060824821211 93.088901317607224 -115.59660119370248 -99.915060824821225 93.088901317607224 -383.40312640324271 -9.0754711246624082e-06 -1.2576604677127144e-05 -3.8998993034972992e-05 -387.98815252280849 1.0170141576768965e-07 5.0013083674471659e-09 2.5583570118392629e-05 0.0092852631256368154 8.8875516109525761e-11 2.5185719080525928e-10 3.6257476813721198e-10 0.0093042818248398867 -114.62406224400000 -99.805851428000011 96.572263865600007 85.211636250682801 0.0000000000000000 0.0000000000000000 0.0000000000000000 0.0000000000000000 3.0965413947061724 3.1948299031159517 1.0982860329069271 1.0425450272607615 869.79149618863028 869.79121836864408 1.0479774093310965 
-112.03261637500975 -91.155560487120738 96.858060865829501 -112.03261637500974 -91.155560487120738 96.858060865829501 -363.33948492205133 -4.0643151647365271e-06 -5.9042985692723382e-07 -4.2626504302795807e-05 -360.57289373528272 9.8827254865763146e-08 2.6524085150470000e-09 2.4701091976275794e-05 0.0091019259069566420 -2.0696865307279045e-12 -4.7933432860434611e-11 4.6262247210509007e-10 0.0090070144936991343 -111.08756211600000 -91.097641973600034 100.22126851279998 99.535403830130534 0.0000000000000000 0.0000000000000000 0.0000000000000000 0.0000000000000000 3.1035693943985616 3.2097019701172802 1.1061536025385144 1.0454348698880784 848.64040612773158 848.64075198825037 1.0517673583875260 
-113.86352186358957 -97.752350626838350 105.29247972513933 -113.86352186358955 -97.752350626838336 105.29247972513934 -335.94275906971308 -3.9174148276899232e-06 -2.5703003550234500e-06 -3.7423877840203432e-05 -335.47439264480147 1.0030379098135979e-07 4.4213738226162036e-09 2.2726330690225893e-05 0.0088174170645306041 2.3295999278920188e-11 5.7670959758376302e-11 3.4330916543966721e-10 0.0088069509379905386 -112.90434805199999 -97.655804887999992 108.38681131359999 128.09762094244454 0.0000000000000000 0.0000000000000000 0.0000000000000000 0.0000000000000000 3.0961671202153647 3.1947276410546785 1.0985768044604236 1.0453950753130301 789.22095316361447 789.22165094856189 1.0481313705392634 
-108.06915519148619 -103.97417869686898 97.197787309708758 -108.06915519148616 -103.97417869686890 97.197787309708772 -358.66583356008948 -4.2288025523184260e-05 -4.0705563222309234e-06 -4.5427809386746296e-05 0.0000000000000000 9.5630941762681054e-08 6.0897765719047917e-09 2.4621551388825935e-05 0.0090828302690051151 6.1566306876976679e-10 6.4554005253577339e-11 1.5533140529894760e-10 0.0000000000000000 -107.15466629968294 -103.84120130723400 100.55016500991876 102.24201981555134 0.0000000000000000 0.0000000000000000 0.0000000000000000 0.0000000000000000 3.0793025384345034 3.1586467900374076 1.0793294460062801 1.0387145939179114 788.68493674609283 788.68487522800967 1.0388762420794295 
-27.228609376116093 -115.50622921971457 99.987604606312587 -27.228609376116086 -115.50622921971454 99.987604606312615 -128.24208265323747 3.4674623305715771e-05 1.6823937611689960e-05 -5.0031028128007013e-05 0.0000000000000000 -3.7065831221543572e-09 -1.3911565296704510e-06 2.8498066758699657e-05 0.0081028500438388926 -2.2372106266119334e-10 3.2335056903352691e-10 1.3291911340419673e-09 0.0000000000000000 -26.889884864405381 -115.37486796036181 103.37575244326078 96.382960025775517 0.0000000000000000 0.0000000000000000 0.0000000000000000 0.0000000000000000 3.1316905317817576 3.2677165567435038 1.1360550262368809 1.0657553075292241 483.99462116212078 483.99819796341046 1.0658506280426037 
-110.50158141195782 -103.75345833490198 150.54572073798110 -110.50158141195783 -103.75345833490199 150.54572073798107 -308.54921789768014 9.4836305338450861e-07 3.1777180778119255e-06 3.1681174655286690e-07 -309.84147871993389 9.7592559963888257e-08 6.0306012406030618e-09 1.2131131437165267e-05 0.0082203380110531903 -1.9230107239674398e-11 -6.8942397890958374e-11 3.0204179674731207e-12 0.0082184711587479607 -109.56833416800004 -103.62177336400003 152.19744990400002 70.302883591683823 0.0000000000000000 0.0000000000000000 0.0000000000000000 0.0000000000000000 3.0906213858143166 3.1828690398239363 1.0922550188121229 1.0451825660469660 728.27468238604536 728.27465409349372 1.0451144660070901 