# For a description of the Tecplot format see the Tecplot User's guide.
#
Variables=x,y,z,s_u,s_v,s_w,s_p,mono_f_vel_u,mono_f_vel_v,mono_f_vel_w,const,u_nu,v_nu,w_nu,p_nu,x_nu,y_nu,z_nu,const,u_ref,v_ref,w_ref,vol_ref,x_ref,y_ref,z_ref,const,I1,I2,I3,J,p1,p2,p3
Zone f=fepoint, n=356, e=1130, et=brick, c=black
-66.5542 -97.6483 88.6877 -66.554230154310687 -97.648302326982943 88.687672734403165 -130.46906512617088 -7.1610423933415792e-06 1.0143249920605930e-05 -7.6350548589635198e-06 -2.2494058030563990e-20 1.0794757587806458e-09 4.4058312553829637e-11 7.7248097678506156e-06 0.00019106741271431054 9.3155627587821983e-12 -1.3790930092248646e-11 6.3982477210441404e-12 2.1801719614396746e-21 -65.196340044403073 -97.429114013214090 96.966749492950399 1962.9112535355127 0.0000000000000000 0.0000000000000000 0.0000000000000000 0.0000000000000000 3.2264395081063482 3.4642162144949635 1.2379377693330020 1.1127859921655388 677.44675801222195 691.55373993771570 1.1126266426629778 
-76.651357658375062 -130.95663184586672 74.746534182904540 -76.651357658375062 -130.95663184586672 74.746534182904526 -136.91689922083339 -2.8698157243261718e-05 -1.0384767250379456e-06 1.0323021502264560e-06 -113.34597786427959 1.2209088462444839e-09 1.3365242246266010e-10 8.6722127452532050e-06 0.00019525384756688232 3.4443070459771310e-11 5.8974381382092004e-13 -5.6656511587470422e-13 0.00018209965044158706 -75.115563256000002 -130.29184138500000 84.040991542000015 2013.9639834346967 0.0000000000000000 0.0000000000000000 0.0000000000000000 0.0000000000000000 3.2266448076155574 3.4646533350045767 1.2381702899245750 1.1127859921655399 696.47649391527978 687.96817734625085 1.1127311783037508 
-64.197329989643748 -122.12055860469376 66.846522868586973 -64.197329989643762 -122.12055860469376 66.846522868586973 -129.40693601275504 9.5229242888182897e-06 1.5637070536184929e-06 1.0482765156587276e-06 -115.31514178497504 1.0464652755448611e-09 1.0988077114859607e-10 9.2090766656838258e-06 0.00019371544230005819 -1.2526131974829433e-11 -1.2916720845101520e-11 7.0161982171926676e-12 0.00016009574533856549 -62.880966804699995 -121.57397801100001 76.716364957060009 1170.9855824450976 0.0000000000000000 0.0000000000000000 0.0000000000000000 0.0000000000000000 3.2270203306217229 3.4654018794692325 1.2385428197061576 1.1127859921655394 669.06046537843974 667.51202610265034 1.1128981471741144 
-56.851164376288637 -132.48819768812356 72.428302977964435 -56.851164376288644 -132.48819768812356 72.428302977964435 -114.55789709860947 1.9980280600814260e-05 5.3081615741582359e-06 -1.2707655165172062e-05 -120.71358706338286 9.4356736313194745e-10 1.3776579876889630e-10 8.8297536198211918e-06 0.00017797883073089732 -1.6781104093680666e-11 1.2282392611773231e-12 2.0364158055342785e-11 0.00022181908274332768 -55.664235468099989 -131.80291778700004 81.891605011000010 1977.7795635233642 0.0000000000000000 0.0000000000000000 0.0000000000000000 0.0000000000000000 3.2262634103103163 3.4638830942669396 1.2377815821566087 1.1127859921655396 654.57600812083570 642.25135028480213 1.1125570041796811 
-124.29638754193898 -110.62160843699219 85.415430548671708 -124.29638754193897 -110.62160843699220 85.415430548671694 -180.30983238940183 -1.8416158310916890e-06 4.1928163007422814e-06 -2.5299841552876480e-05 -189.73008455102845 1.8882554686516784e-09 7.8959505600550970e-11 7.9471827145738416e-06 0.00022226241284844885 -2.1925863508105849e-12 -7.3085350036395925e-12 9.0730779792003807e-12 0.00022530830149152041 -121.92112118800000 -110.22886194300000 93.932835849999989 1979.3501102100577 0.0000000000000000 0.0000000000000000 0.0000000000000000 0.0000000000000000 3.2268517118760478 3.4650665394175162 1.2383763406502839 1.1127859921655383 786.60664250797902 787.37446708859341 1.1128235995910847 
-124.16699509493274 -128.88401240877337 89.833195798565228 -124.16699509493270 -128.88401240877334 89.833195798565228 -172.12623502077321 -2.1443459436001053e-06 -7.4285219482677100e-07 -2.0404535584599782e-05 -185.30989778675436 1.8864462492107496e-09 1.2808021310206644e-10 7.6469630432285385e-06 0.00021559208789495089 -7.5644070511426866e-13 -2.4608258012930789e-12 3.1374209137797969e-12 0.00020204518041709197 -121.79400854500000 -128.24694965699999 98.028840211000002 2171.1766123060684 0.0000000000000000 0.0000000000000000 0.0000000000000000 0.0000000000000000 3.2269597979093088 3.4652750116235413 1.2384764712554248 1.1127859921655383 765.40320856254050 767.35963474021275 1.1128683445265359 
-88.359660023000686 -119.86108558058183 104.84990217640417 -88.359660023000728 -119.86108558058184 104.84990217640417 -139.88950177288578 -1.4578406953512291e-05 5.8495036248670433e-07 -1.7238925033082824e-05 -6.4444789161483496e-20 1.3849023317025198e-09 1.0380873938231617e-10 6.6264673126426041e-06 0.00019383321839129604 2.0307776819588647e-11 -1.1107399442545387e-12 7.3185085444652687e-12 7.2804094185682638e-21 -86.617573559112500 -119.34473244186394 111.95182872039791 1753.2209356453191 0.0000000000000000 0.0000000000000000 0.0000000000000000 0.0000000000000000 3.2263457713881349 3.4640678140011820 1.2378842191655799 1.1127859921655385 705.23892755495262 711.43129871731549 1.1126027048531133 
-123.28484141997347 -119.25235004109011 103.84319817997810 -123.28484141997345 -119.25235004109012 103.84319817997810 -153.90206919308145 -1.1792606456743385e-06 3.5704092894846916e-06 -1.1986673971750539e-05 -150.04303654615447 1.8740899110358811e-09 1.0216183454758720e-10 6.6948802643906893e-06 0.00020282638633452332 -2.1105908157559911e-13 -5.2013479177015155e-12 6.7613206247252654e-12 0.00020295720496389731 -120.92739779800000 -118.74414062699999 111.01844640460000 1486.9218523490313 0.0000000000000000 0.0000000000000000 0.0000000000000000 0.0000000000000000 3.2267843997569119 3.4648886446483358 1.2382646021138797 1.1127859921655396 729.81288746213795 731.26081506388607 1.1127733966870583 
-44.748800285620646 -164.28665208777983 121.01212636568391 -44.748800285620639 -164.28665208777980 121.01212636568386 -99.265349676153448 2.7477267598954492e-05 -2.9978001798470623e-05 1.1509871742554569e-05 0.0000000000000000 7.7405629128612929e-10 2.2328316973130308e-10 5.5281252269168135e-06 0.00015717175483011422 -3.8798591480540927e-11 4.2315912819475853e-11 -2.5345821481747471e-12 0.0000000000000000 -43.775106529693616 -163.17596929916377 126.93690307769774 1219.2399513932846 0.0000000000000000 0.0000000000000000 0.0000000000000000 0.0000000000000000 3.2246088842115537 3.4602015306775438 1.2357432573860561 1.1129068050781592 615.11611274085271 638.39400337124550 1.1116417006305215 
-15.750698570419786 -144.36819417034187 133.84124009550845 -15.750698570419786 -144.36819417034187 133.84124009550848 -98.255650688146062 6.1992649034967581e-06 -2.0739474421859636e-05 6.2690431627390669e-06 -96.160698418848128 3.6788536106335817e-10 1.6972800942482993e-10 4.6562925053450499e-06 0.00015689593082348328 -6.0461527315665272e-12 2.9278842009664324e-11 -5.1019246458151923e-12 0.00015431717246455924 -15.287930992899994 -143.52398249399997 138.83162876200001 1142.5393367497743 0.0000000000000000 0.0000000000000000 0.0000000000000000 0.0000000000000000 3.2239882878353896 3.4590754887824029 1.2352432168753187 1.1125355538703945 628.11857357366728 624.22626241892772 1.1114159248072633 
-44.748800285620646 -164.28665208777983 137.17435055496361 -44.748800285620675 -164.28665208777974 137.17435055496361 -123.35051380205790 3.6523695402476589e-06 -1.5126273609515170e-05 1.0628233220998925e-05 0.0000000000000000 7.7405629128612929e-10 2.2328316973130313e-10 4.4297831180983840e-06 0.00017821083893953171 -5.2557082942376497e-12 2.5719333487536152e-11 -1.0675179988286583e-11 0.0000000000000000 -43.775106529693623 -163.17596929916371 141.92197743499761 2138.0712005850128 0.0000000000000000 0.0000000000000000 0.0000000000000000 0.0000000000000000 3.2261584320770855 3.4636135390651352 1.2376149847473108 1.1126150718815937 679.03175528437703 677.20914868730677 1.1124815367979084 
-6.0537480711763729 -162.10364335554647 128.01471813901964 -6.0537480711763729 -162.10364335554644 128.01471813901961 -143.22702488016452 1.7999543993755947e-05 -1.6500714805582754e-05 7.8212123442979952e-06 -151.89398797183000 2.3206236932082902e-10 2.1741142219866558e-10 5.0522475767422748e-06 0.00018929935570101156 -2.1776363910657372e-11 2.5055054505542870e-11 -6.4008804095065431e-12 0.00018635659625733207 -5.7618339484599987 -161.02216507500000 133.42947224320002 1741.2893742699428 0.0000000000000000 0.0000000000000000 0.0000000000000000 0.0000000000000000 3.2272694489905032 3.4659607519045306 1.2388544039026823 1.1127859921655390 715.95786242313613 708.60848062154571 1.1130383573716878 
-9.9934127582280077 -107.31680993169988 182.33996017041886 -9.9934127582280059 -107.31680993169991 182.33996017041886 -154.35449001604846 -4.7332033102749302e-06 2.8036586641687869e-06 9.3723214757802318e-06 -156.62952428252660 2.8724442269201234e-10 7.0062400325809904e-11 1.3604475075368330e-06 0.00019442096892392807 4.3539326948125709e-13 -5.8671650681164307e-12 -3.0463707444012467e-12 0.00019995973037050316 -9.6320845117000005 -106.96827536100001 183.79802188000005 966.19067172024859 0.0000000000000000 0.0000000000000000 0.0000000000000000 0.0000000000000000 3.2267652144169934 3.4648861818434971 1.2382823260104605 1.1127859921655385 733.04633455676492 732.41475905198126 1.1127813238457021 
-17.860120563272265 -108.85736494700835 193.09347130389372 -17.860120563272265 -108.85736494700834 193.09347130389372 -162.78916383023233 -6.3106469618538852e-06 2.6461676529497803e-06 3.6927351002601773e-06 -167.19874304761950 3.9743061619468289e-10 7.4211525813439039e-11 6.2966726943614059e-07 0.00019599066433098893 8.8844406370879453e-13 -5.9049985231913966e-12 -1.1304278520656958e-12 0.00020309048355189873 -17.360186452300006 -108.48822067799998 193.76831817399997 1163.9017450188298 0.0000000000000000 0.0000000000000000 0.0000000000000000 0.0000000000000000 3.2267451880264071 3.4648441519433888 1.2382602762889015 1.1127859921655388 751.91324424635684 750.93587437090082 1.1127713984314804 
-44.748800285620646 -119.86108558058183 169.49879893352309 -44.748800285620710 -119.86108558058183 169.49879893352283 -155.83902782081734 1.4154218850950281e-06 7.8214574298494699e-06 1.3981085974510304e-05 0.0000000000000000 7.7405629128612929e-10 1.0380873938231619e-10 2.2330989217778097e-06 0.00019439090952933329 -6.4527320552606800e-13 -9.7562585015749267e-12 2.4081021402382899e-13 0.0000000000000000 -43.775106529693538 -119.34473244186404 171.89212614959743 1771.3229973881550 0.0000000000000000 0.0000000000000000 0.0000000000000000 0.0000000000000000 3.2269217792450333 3.4652075866323151 1.2384472967676923 1.1127859921655401 735.13787567266797 737.34276908214838 1.1128556762589894 
-9.5398796916431792 -124.74397779266917 188.41239508646703 -9.5398796916431792 -124.74397779266917 188.41239508646706 -156.74840169384575 -3.8535210964771793e-06 -3.3982241527729467e-06 6.9948934018451278e-06 -156.73080095776649 2.8089222614546827e-10 1.1693113144417566e-10 9.4778086356939195e-07 0.00019437976569199600 -2.0162232074854000e-12 4.0146215283241462e-12 -3.5449311788762744e-12 0.00019709705858234817 -9.1865423791000023 -124.16230083600000 189.42818068000000 961.51487702825557 0.0000000000000000 0.0000000000000000 0.0000000000000000 0.0000000000000000 3.2267347153613235 3.4648226518723111 1.2382492378781913 1.1127859921655372 738.51071880020265 738.22601727100482 1.1127664219241833 
-44.748800285620646 -164.28665208777983 104.84990217640417 -44.748800285620646 -164.28665208777977 104.84990217640417 -121.92062936846145 1.0073883199885395e-05 -4.2627217113774845e-05 -3.5788036629029078e-05 4.1516727964162576e-19 7.7405629128612940e-10 2.2328316973130311e-10 6.6264673126426024e-06 0.00017293464827594602 -1.3752859988727943e-11 5.7047922972594042e-11 1.2431606285098833e-11 -4.7047596668785336e-20 -43.775106529693623 -163.17596929916374 111.95182872039793 1372.1117852990953 0.0000000000000000 0.0000000000000000 0.0000000000000000 0.0000000000000000 3.2290143297496079 3.4697608190672651 1.2409161080435493 1.1135445954521144 676.07611913332960 706.19160747175204 1.1139635983643925 
-61.904928684976788 -161.59570776668974 82.103392356399610 -61.904928684976781 -161.59570776668977 82.103392356399596 -163.51869596829576 -1.3138818533354995e-05 -3.8717121409774374e-05 -9.8691091515881584e-06 -167.78279592419085 1.0143589579403312e-09 2.1604584787837661e-10 8.1722600828726416e-06 0.00019995961148549200 1.4189360909694470e-11 4.6247917511671304e-11 2.0282188113214339e-11 0.00022249003058057905 -60.628956000399988 -160.52102469899998 90.862024679199990 1556.8824791929137 0.0000000000000000 0.0000000000000000 0.0000000000000000 0.0000000000000000 3.2246412791665757 3.4606323798513965 1.2361538672664960 1.1123135198099239 755.70598157020117 753.70220417502969 1.1118244723737962 
-44.806594601059288 -168.69914155787112 79.285631088722681 -44.806594601059274 -168.69914155787109 79.285631088722681 -183.20850076329080 1.5403650590572657e-06 -3.9210193675417811e-05 -6.4181387739400613e-06 -159.72758529898101 7.7486131400128510e-10 2.3514168390192930e-10 8.3637476979703251e-06 0.00021208963166983701 -5.1553542633901031e-14 4.7936342355693182e-11 1.4081779460797600e-11 0.00021579347481098237 -43.831882549900001 -167.52942804599996 88.249490561200005 1643.6708107299999 0.0000000000000000 0.0000000000000000 0.0000000000000000 0.0000000000000000 3.2267698840975716 3.4648498191877035 1.2382401972426664 1.1127859921655385 783.12478908510991 778.64898532582492 1.1127625281579545 
-44.748800285620646 -186.49943534137884 104.84990217640417 -44.748800285620682 -186.49943534137873 104.84990217640419 -190.48633639381387 -5.0412582043395820e-07 -1.9255843505743773e-05 -1.7537780308361845e-05 -2.6952334564761020e-20 7.7405629128612929e-10 2.8302027388349421e-10 6.6264673126426032e-06 0.00021710014318969268 2.8170491934417235e-12 2.7602826587156603e-11 1.2686030639359829e-12 3.1012060601658116e-21 -43.775106529693623 -185.09158772781387 111.95182872039791 1529.2408403851955 0.0000000000000000 0.0000000000000000 0.0000000000000000 0.0000000000000000 3.2260759048085381 3.4634342041982782 1.2375174358478440 1.1126472692092446 798.74033400965322 800.89024286845608 1.1124374377165787 
-88.359660023000686 -142.07386883418084 137.17435055496361 -88.359660023000728 -142.07386883418079 137.17435055496358 -144.64746628922902 -5.9433324443342569e-06 -5.4106599954687416e-06 5.7554855856343480e-06 0.0000000000000000 1.3849023317025202e-09 1.6354606557911208e-10 4.4297831180983849e-06 0.00019332789092686099 8.8463691549047544e-12 7.2371420053076726e-12 -2.8620681036295569e-12 0.0000000000000000 -86.617573559112486 -141.26035087051392 141.92197743499761 1776.4810640138739 0.0000000000000000 0.0000000000000000 0.0000000000000000 0.0000000000000000 3.2253205553123085 3.4618174897963354 1.2366545623064695 1.1120937092891054 716.62304938222235 719.84018627333000 1.1120479165456172 
-66.554230154310659 -164.28665208777983 137.17435055496361 -66.554230154310645 -164.28665208777971 137.17435055496367 -135.90325796260521 -1.3667083167747332e-05 -6.3231594639636193e-06 9.1675567388071035e-06 -6.3952679744693977e-21 1.0794757587806458e-09 2.2328316973130318e-10 4.4297831180983849e-06 0.00018658531894378571 1.9640088532444837e-11 1.1626336938719873e-11 -6.8515127961435347e-12 6.2821473687857451e-22 -65.196340044403016 -163.17596929916368 141.92197743499761 1909.2349168221303 0.0000000000000000 0.0000000000000000 0.0000000000000000 0.0000000000000000 3.2251078065958851 3.4613777310145388 1.2364266680846947 1.1123515430160513 698.72780418763080 702.26901488763986 1.1119471916771861 
-88.359660023000686 -164.28665208777983 121.01212636568391 -88.359660023000728 -164.28665208777974 121.01212636568383 -155.92657588351452 -9.3886863443594461e-06 -8.5287351266989080e-06 -6.3326765271334480e-06 0.0000000000000000 1.3849023317025200e-09 2.2328316973130313e-10 5.5281252269168144e-06 0.00019963461243217864 1.3294985080273989e-11 1.1551423398902484e-11 2.5566140825116609e-12 0.0000000000000000 -86.617573559112500 -163.17596929916371 126.93690307769781 1465.4254424602818 0.0000000000000000 0.0000000000000000 0.0000000000000000 0.0000000000000000 3.2275350933332545 3.4664910747753308 1.2391186138866812 1.1128736610598144 738.68440264900960 737.48953530009521 1.1131566560177653 
-88.359660023000686 -142.07386883418084 121.01212636568391 -88.359660023000728 -142.07386883418079 121.01212636568383 -126.99523919938913 -2.5770226306055346e-05 -1.6678986991962028e-05 2.6647184601768640e-06 0.0000000000000000 1.3849023317025202e-09 1.6354606557911211e-10 5.5281252127059580e-06 0.00018097333873182847 3.6701917834753433e-11 2.1267215228933194e-11 1.4266190176574855e-12 0.0000000000000000 -86.617573559112472 -141.26035087051395 126.93690307769782 1314.1623031803638 0.0000000000000000 0.0000000000000000 0.0000000000000000 0.0000000000000000 3.2256056565781570 3.4621664548322748 1.2367116451831943 1.1126738200362705 679.75371590545217 679.56682835076901 1.1120777082530777 
-45.781645179285555 -110.56748415293369 43.702553219742533 -45.781645179285540 -110.56748415293372 43.702553219742533 -219.19386593479206 8.4354352186613890e-06 1.2259046560748699e-05 -1.6920898694507827e-05 -219.61992585357061 7.8852049889555066e-10 7.8805850733942849e-11 1.0781879753452019e-05 0.00025410660369466493 3.0246161165516497e-12 -4.9198815339519016e-12 1.6646412983233310e-11 0.00024423414021517131 -44.789753421999997 -110.17546173899997 55.258049440000001 1011.3304348559651 0.0000000000000000 0.0000000000000000 0.0000000000000000 0.0000000000000000 3.2267867566967898 3.4649301843612146 1.2383047927336182 1.1127859921655390 846.95781835635955 846.90735079745548 1.1127914305126598 
-57.832661354961601 -98.972529617040266 40.993627610969121 -57.832661354961601 -98.972529617040280 40.993627610969128 -243.08979217164318 -7.5418331088745638e-06 1.4129818730231856e-05 -2.3284588532900629e-05 -244.01376393479879 9.5731414462285613e-10 4.7620130061432064e-11 1.0965971187104628e-05 0.00027175274762020771 1.7514201224248433e-11 -3.8502335778478284e-12 1.6142549209740433e-11 0.00029260257447595432 -56.628439159600013 -98.735625658800004 52.746424109200007 1395.9618554683195 0.0000000000000000 0.0000000000000000 0.0000000000000000 0.0000000000000000 3.2267770838692509 3.4649098214335701 1.2382940815301422 1.1127859921655388 891.80382230547059 891.72160109653487 1.1127866272655427 
-60.880285409365996 -105.78259464896468 52.398300674064124 -60.880285409366017 -105.78259464896472 52.398300674064110 -203.07655368634715 2.2870667664361868e-06 4.1523663082629002e-05 -4.0268709752728894e-05 -136.90504593127869 1.0000057726333724e-09 6.5946137439709673e-11 1.0190939711662850e-05 0.00024410166059007300 1.5837476697392828e-11 -2.2933231963999083e-11 4.9076867364607573e-11 0.00031680323324676478 -59.622366219399986 -105.45458496299997 63.320455991800024 1631.5611169842575 0.0000000000000000 0.0000000000000000 0.0000000000000000 0.0000000000000000 3.2267490762545634 3.4648520780365222 1.2382643217211313 1.1127859921655388 812.77146034636030 813.36553766336681 1.1127732813563644 
-19.719665584343339 -88.171158202723461 52.851158360048238 -19.719665584343343 -88.171158202723490 52.851158360048238 -208.78243851108130 -6.0522299836936186e-06 3.2826359595483012e-06 -3.4136253734726236e-05 -210.85511625942522 4.2347766959771604e-10 1.8579138227892145e-11 1.0160164693573392e-05 0.00024710446671518912 1.8928895037948984e-12 -1.6436315439926615e-11 3.3422948453233044e-12 0.00024785253974630051 -19.186967596599999 -88.078756066199972 63.740330510200010 1361.9683039629940 0.0000000000000000 0.0000000000000000 0.0000000000000000 0.0000000000000000 3.2267659488626728 3.4648866735331985 1.2382820533603769 1.1127859921655388 831.65793865747048 831.86557004245685 1.1127812381126954 
-59.502892128908911 -179.37099318194444 74.612906190517265 -59.502892128908911 -179.37099318194444 74.612906190517265 -220.97659377462313 -3.8188257826052359e-06 -7.9271588923075641e-06 -1.0232908757812438e-05 -228.01477288914478 9.8071364917906578e-10 2.6385471585399500e-10 8.6812937549751723e-06 0.00023606013860216532 5.4455115276252192e-12 2.9871490797174940e-12 1.6821459639134841e-11 0.00026246774458126454 -58.269241640800026 -178.05851057700005 83.917096131400029 1498.9894771187792 0.0000000000000000 0.0000000000000000 0.0000000000000000 0.0000000000000000 3.2276029662715895 3.4666604389318256 1.2392213636760503 1.1127859921655388 854.99172186933288 855.45108195952025 1.1132037749374075 
-75.354172833043521 -185.77658327569321 67.864674674357900 -75.354172833043535 -185.77658327569318 67.864674674357914 -228.97032818817840 -1.5781615946654215e-06 -6.6807942698025958e-06 -2.5251426200471596e-06 -230.94572622642968 1.2027364937328144e-09 2.8108138039328878e-10 9.1398857531288513e-06 0.00024292900433521100 -2.3687133301200556e-13 2.1441317744925759e-12 4.2321276313734499e-12 0.00023591453796574372 -73.841233915900020 -184.37840604900001 77.660361299260003 1118.5962234853314 0.0000000000000000 0.0000000000000000 0.0000000000000000 0.0000000000000000 3.2266780780164517 3.4646547983324045 1.2381363427563552 1.1127859921655390 869.58849279257208 869.56445371636858 1.1127155153892931 
-70.578021737828124 -212.63651622271820 82.712632453589080 -70.578021737828109 -212.63651622271817 82.712632453589080 -224.65931206521225 1.3618861724709101e-06 1.4853803689549055e-06 -1.0086208617760050e-05 -224.44295009435035 1.1358320117782483e-09 3.5331426673224092e-10 8.1308577382088743e-06 0.00023835138998579619 -8.9493589663438917e-13 7.9880542076198617e-13 4.3145646351571147e-12 0.00023984669255762726 -69.149235247299998 -210.87900414000003 91.426891745200010 1316.5891353856312 0.0000000000000000 0.0000000000000000 0.0000000000000000 0.0000000000000000 3.2269360115320369 3.4652922260888230 1.2385194572023992 1.1127859921655383 858.21659899492272 858.23026194830152 1.1128881943393034 
-87.834106857460412 -208.28727043169556 86.553020677485264 -87.834106857460398 -208.28727043169556 86.553020677485250 -216.91992764497027 7.2018473401509934e-06 -3.4047494046923514e-06 -1.2172782207928944e-05 -230.90983082958306 1.3775395546478107e-09 3.4162939144266602e-10 7.8698750822780994e-06 0.00023488792634964549 -6.2678208360933954e-12 4.3407303008259839e-12 -4.0385828788968979e-12 0.00023914462524529014 -86.101280271099995 -206.58794299200005 94.987571415399998 1849.5997999231981 0.0000000000000000 0.0000000000000000 0.0000000000000000 0.0000000000000000 3.2273698013256271 3.4661673219847065 1.2389607471155466 1.1127859921655392 852.56129699544533 852.27619375543452 1.1130865682354223 
-75.263468077478834 -213.64141114702110 97.248795485329808 -75.263468077478834 -213.64141114702110 97.248795485329808 -210.31327746110529 -5.2824902498539558e-08 5.2930427905344504e-07 -3.7587529522322737e-06 -214.88838620143900 1.2014626238343595e-09 3.5602054637706710e-10 7.1430184629406313e-06 0.00022968891265283723 -6.3324499895517076e-14 -3.4099475661818611e-13 2.2472886824735755e-12 0.00023260944682918492 -73.752127314399999 -211.87045547999998 104.90433651700000 935.08208219187054 0.0000000000000000 0.0000000000000000 0.0000000000000000 0.0000000000000000 3.2273561517336646 3.4661984485448820 1.2390073420216379 1.1127859921655388 839.99231106751597 840.36060744315660 1.1131077593021714 
-66.554230154310659 -186.49943534137884 104.84990217640417 -66.554230154310645 -186.49943534137873 104.84990217640420 -190.42078113804013 3.0732912419637928e-06 -1.4937859340654984e-05 -1.9086426243170079e-05 -2.1859323260404221e-19 1.0794757587806458e-09 2.8302027388349416e-10 6.6264673126426032e-06 0.00021841800703306972 -1.3954035826936052e-12 2.1305294838887609e-11 1.7808018104094525e-12 2.4745440485100270e-20 -65.196340044403016 -185.09158772781387 111.95182872039793 1710.5411337269345 0.0000000000000000 0.0000000000000000 0.0000000000000000 0.0000000000000000 3.2245791580745937 3.4600746162879270 1.2356445207175424 1.1121819951595870 795.67665450191703 795.11398292648573 1.1115940399717921 
-84.446476978919875 -209.38271944663484 105.89703061158374 -84.446476978919875 -209.38271944663484 105.89703061158376 -197.62903997253019 4.0488250516452557e-06 -3.5856145544490859e-06 -1.4425143892069765e-05 -194.03490258358164 1.3300915091551959e-09 3.4455904796004688e-10 6.5553072303714544e-06 0.00022311944821755549 -5.1119873868726704e-12 2.7145175427665457e-12 7.9401564542480316e-12 0.00022274616037375034 -82.773338050899994 -207.66873698099997 112.92269122540003 1217.6379143129484 0.0000000000000000 0.0000000000000000 0.0000000000000000 0.0000000000000000 3.2275428297616666 3.4665652487272998 1.2391870584811888 1.1127859921655388 807.54095668845059 808.45626057922880 1.1131882238346120 
-42.104707536606021 -130.43857160946763 61.176698649288973 -42.104707536606028 -130.43857160946760 61.176698649288966 -164.48679113954225 1.2254073126095562e-05 7.3738804717551238e-06 -2.0731962252350024e-05 -166.50533108834571 7.3702113856377593e-10 1.3225553985307670e-10 9.5943829503397637e-06 0.00021355782434299484 -5.9407347624366163e-12 2.1332148177047124e-12 2.5844996595818244e-11 0.00023898004417704038 -41.177600837199989 -129.78071180999999 71.459493345580000 2063.2509735647445 0.0000000000000000 0.0000000000000000 0.0000000000000000 0.0000000000000000 3.2269175943332473 3.4652050804493775 1.2384491109006885 1.1127859921655392 758.57998314482143 758.65654000747043 1.1128561223198350 
-23.137195985993213 -134.87278874154711 50.997984789699082 -23.137195985993209 -134.87278874154711 50.997984789699089 -194.05361138990420 6.7524500754843601e-06 3.4860128929325819e-06 -8.2399095376553611e-06 -196.30167171511337 4.7134510183788336e-10 1.4416845495190953e-10 1.0286101481682410e-05 0.00023394331075009660 -2.0788010697978928e-12 2.3283491204808891e-12 5.5150472914915133e-12 0.00023175653216607150 -22.544283513700002 -134.15560754399999 62.022129882400009 885.37450795058874 0.0000000000000000 0.0000000000000000 0.0000000000000000 0.0000000000000000 3.2267027293764978 3.4647526953298349 1.2382111323140543 1.1127859921655392 803.21223355947564 802.98417197545689 1.1127494544986662 
-11.251566207944315 -103.78207784203315 57.408499421517185 -11.251566207944311 -103.78207784203317 57.408499421517178 -191.07150433979274 -5.2299191817158340e-06 -4.3815751928066340e-06 -3.0207866682340285e-05 -186.11251788066559 3.0486624336134582e-10 6.0557781011993939e-11 9.8504598238235985e-06 0.00023224231003958522 -8.8093920288593039e-13 -7.6211111038190996e-12 4.1913548427995970e-12 0.00023101642775149635 -10.868070181599997 -103.48083126899998 67.965744901059992 1215.6056386602015 0.0000000000000000 0.0000000000000000 0.0000000000000000 0.0000000000000000 3.2267391882656331 3.4648307538938372 1.2382528514263393 1.1127859921655390 804.53667129579128 805.04781483947579 1.1127681508632163 
-29.408410391721329 -141.24280063458610 65.637951345785325 -29.408410391721329 -141.24280063458608 65.637951345785325 -164.70330694633063 8.5025180225903412e-06 1.1220777591294488e-05 -2.2175730688669469e-05 -159.48518780278948 5.5918628061313314e-10 1.6131851410250417e-10 9.2912079967533145e-06 0.00021130859392657755 -5.4215153311382180e-12 1.4536205452828304e-12 2.3121071828351956e-11 0.00024110223015904006 -28.705003527699994 -140.44040078399999 75.595817814339981 2059.5227122681431 0.0000000000000000 0.0000000000000000 0.0000000000000000 0.0000000000000000 3.2269788169115046 3.4653383314491739 1.2385214060809648 1.1127859921655394 750.46360621340159 749.90507581444137 1.1128884935141901 
-104.60059064979536 -194.96096331689998 90.410386933697765 -104.60059064979534 -194.96096331689998 90.410386933697751 -204.30668240184940 -1.4918483174378359e-06 -6.4665363459256110e-07 -1.0280533801861005e-05 -213.82387763960486 1.6123790358424375e-09 3.0577052001490296e-10 7.6077386559347815e-06 0.00022903435179510878 6.6640557272390405e-13 -2.4139523358457207e-12 -4.0483708224955769e-14 0.00022651168255487938 -102.57235039900000 -193.43991653999998 98.563992549999980 2518.6337191607704 0.0000000000000000 0.0000000000000000 0.0000000000000000 0.0000000000000000 3.2272168816981330 3.4658877332404314 1.2388349327273425 1.1127859921655388 824.70352274983100 825.81756097155915 1.1130301003434779 
-83.483631833239642 -162.95307289749258 73.627670837505562 -83.483631833239599 -162.95307289749246 73.627670837505562 -206.44335877702167 -1.1420053521308512e-05 -1.4551743806521222e-05 -1.7136766603029313e-05 -202.78165471042573 1.3166045198520493e-09 2.1970958385963970e-10 8.7482477422184974e-06 0.00023174018955975925 7.8534426057697277e-12 1.1756957215716077e-11 2.9779384625221661e-11 0.00028117694905169656 -81.827457560199960 -161.86023086400007 83.003618824599982 2109.0980859678357 0.0000000000000000 0.0000000000000000 0.0000000000000000 0.0000000000000000 3.2275733564397298 3.4666008052573942 1.2391911617951659 1.1127859921655390 827.78007887554475 830.04323655572944 1.1131903394589318 
-28.394734970865709 -125.41428139398161 125.05268241300385 -28.394734970865695 -125.41428139398160 125.05268241300384 -74.667501905725572 -4.2372468804398486e-06 -3.4423167716466555e-06 2.6318841888429770e-05 -8.3111442026735561e-20 5.4498586199436250e-10 1.1873635408221614e-10 5.2535396974917612e-06 0.00013835436974652963 1.0057314639823478e-11 4.8864841458767728e-12 -1.4616810371982708e-11 8.6209028427936778e-21 -27.709188355560290 -124.82363704902639 130.68317166702266 1064.0748165315658 0.0000000000000000 0.0000000000000000 0.0000000000000000 0.0000000000000000 3.2264724102096802 3.4642339820244401 1.2379214277105819 1.1130209614101922 582.18098685244286 583.02034699218302 1.1126185197060037 