# For a description of the Tecplot format see the Tecplot User's guide.
#
Variables=x,y,z,s_u,s_v,s_w,s_p,mono_f_vel_u,mono_f_vel_v,mono_f_vel_w,const,u_nu,v_nu,w_nu,p_nu,x_nu,y_nu,z_nu,const,u_ref,v_ref,w_ref,vol_ref,x_ref,y_ref,z_ref,const,I1,I2,I3,J,p1,p2,p3
Zone f=fepoint, n=3174, e=16683, et=brick, c=black
-24.9608 -154.250 111.635 -24.960800928795553 -154.25029635951989 111.63503950350486 -25.475229552656465 -2.7496835908735587e-06 -1.0709861023135923e-05 -1.2559079764090846e-05 -23.895590544839987 1.3242423477222154e-10 9.0562377041969455e-11 9.8610597909498652e-08 0.00010770014713748461 -2.2778487145223056e-12 -1.7054214824525859e-11 -3.2430434917715836e-12 0.00010025505991905528 -24.903554063199991 -154.16086777200002 112.24023381839994 89.724962256112903 0.0000000000000000 0.0000000000000000 0.0000000000000000 0.0000000000000000 3.0195322580696091 3.0391429741288154 1.0196107588468961 1.0098830384342805 117.31505404697458 117.31505393876427 1.0097573205476100 
-37.519081017542888 -155.22011703132421 114.33740020171672 -37.519081017542909 -155.22011703132421 114.33740020171672 -20.332530772043899 8.2151045209471902e-06 -7.6650521176752101e-06 -6.1376239900521547e-06 0.0000000000000000 8.9059660750823473e-10 9.7554427740025676e-11 1.2320024867238861e-07 0.00012607468096903870 3.8568594652524837e-11 -3.9883743991608749e-11 3.2625099381508167e-11 0.0000000000000000 -37.438273663334591 -155.10473791080037 114.93291110338620 89.036758072416930 0.0000000000000000 0.0000000000000000 0.0000000000000000 0.0000000000000000 3.0234841396153338 3.0471190057549742 1.0236351260557592 1.0113082871585588 123.23894515119638 123.23894532849967 1.0117489796760770 
-31.610597402428787 -147.96079530704114 119.30733696873874 -31.610597402428773 -147.96079530704117 119.30733696873868 -16.891365863072899 2.5225875986828690e-06 -5.2426598475466661e-06 -3.0708709505102530e-06 0.0000000000000000 1.5724735749622631e-10 8.2757925512488826e-11 9.0271354391546779e-08 0.00011863385837186111 7.4607627553353022e-12 5.1762789935604402e-12 -1.7464294201819062e-11 0.0000000000000000 -31.542619574254449 -147.87907313389167 119.86135157363466 98.260374494724786 0.0000000000000000 0.0000000000000000 0.0000000000000000 0.0000000000000000 3.0210603328332684 3.0422301865249506 1.0211699899032134 1.0106597716811057 110.59722885112670 110.59722884515669 1.0105290406893530 
-28.710954370790308 -143.04307816700197 111.51854955294934 -28.710954370790315 -143.04307816700199 111.51854955294937 -17.044599734196950 2.2137031032522701e-06 -7.6320284174893148e-06 -4.3627131222959547e-06 0.0000000000000000 1.4642466752978756e-10 7.6680647942417579e-11 9.8737208853449943e-08 0.00011964889711006285 5.5395254246600051e-11 -2.5857629146002234e-12 6.0364933457683946e-12 0.0000000000000000 -28.647655777685479 -142.96738158566356 112.12452093910819 112.69127588814607 0.0000000000000000 0.0000000000000000 0.0000000000000000 0.0000000000000000 3.0216952090784397 3.0435122832965975 1.0218172675618231 1.0106962309996645 112.33754940449718 112.33755006795570 1.0108497565694237 
-24.318069868905621 -200.57835322799932 72.862713027416845 -24.318069868905617 -200.57835322799932 72.862713027416831 -88.722174108664348 6.0566394894433476e-07 3.7406696175804230e-08 3.7285952640831334e-07 -89.237133531937417 1.3002746448997906e-10 1.4807495507529467e-10 1.4075336629559843e-07 0.00010833877222423201 -4.0736177482094474e-13 -1.0660146503921314e-13 -1.9784528289833502e-13 0.00010838481442681688 -24.261860196399997 -200.43215969199997 73.726546483199982 142.71380061529433 0.0000000000000000 0.0000000000000000 0.0000000000000000 0.0000000000000000 3.0191893743262828 3.0384636574288817 1.0192743906550159 1.0095797232964150 228.25259594479445 228.25259594460107 1.0095912042807715 
-24.213438588882283 -187.76957687693971 74.456681687712987 -24.213438588882287 -187.76957687693971 74.456681687712972 -87.114102523940673 2.1239891764796320e-06 -2.8642584659256311e-06 -8.5555411242989304e-07 -87.680505063746736 1.2963738069138309e-10 1.3217373029394963e-10 1.3902082507399882e-07 0.00010819574634113750 -6.8540185487740550e-13 5.4443261787466987e-13 3.0262491769073736e-13 0.00010836556638195636 -24.157397762799999 -187.63907770800003 75.309882232799993 165.73632395326644 0.0000000000000000 0.0000000000000000 0.0000000000000000 0.0000000000000000 3.0191816149698605 3.0384476936542630 1.0192661848765991 1.0095797232964132 225.54116574651249 225.54116574622907 1.0095871248529527 
-34.958923388659997 -195.55136298955654 80.785697637496469 -34.958923388659976 -195.55136298955668 80.785697637496469 -86.165018126954976 9.6238729797312616e-07 -2.1699358710467871e-06 -4.5357609125023146e-06 0.0000000000000000 1.6975134145558177e-10 1.4182689744846044e-10 1.3214163763208830e-07 0.00010800990238052438 -4.5036250320613432e-13 5.8824718275669084e-13 -2.3261698558859078e-13 0.0000000000000000 -34.885542273181727 -195.41132893576267 81.596679120775832 139.46796289390394 0.0000000000000000 0.0000000000000000 0.0000000000000000 0.0000000000000000 3.0190469460769225 3.0381779314501784 1.0191310924595873 1.0094542867217569 223.38461776753505 223.38461776860069 1.0095202142381579 
-18.870018961349494 -194.66865248591279 80.600739713623213 -18.870018961349498 -194.66865248591270 80.600739713623184 -87.967141502951520 1.0728296395242138e-06 -1.3492509075848015e-06 -2.1481813790550664e-06 0.0000000000000000 1.0968822031220958e-10 1.4072799869868646e-10 1.3234267948192269e-07 0.00010843064991204649 -3.8273383228288289e-13 4.3667599123433769e-13 -4.0787672915767337e-14 0.0000000000000000 -18.822600960987238 -194.52970000168264 81.412954998504986 111.95285379220412 0.0000000000000000 0.0000000000000000 0.0000000000000000 0.0000000000000000 3.0192065321126482 3.0384978311866315 1.0192914062341567 1.0095797232964145 227.87629241653147 227.87629241609017 1.0095996365791675 
-22.717609038094569 -103.23482959061576 42.170106462762732 -22.717609038094569 -103.23482959061575 42.170106462762732 -81.760357185627782 -2.9342598169969632e-06 3.1974389912991862e-06 -4.3733762275363622e-06 -82.665748758903320 1.2405160579320731e-10 2.7269700386689522e-11 1.7411403940847944e-07 9.8027883714439423e-05 5.3712961531889010e-13 -1.5576588670529067e-12 2.1733520451702865e-12 9.8521392373375301e-05 -22.663982073999996 -103.20790935200000 43.238681550399988 69.202643319072678 0.0000000000000000 0.0000000000000000 0.0000000000000000 0.0000000000000000 3.0191571905539907 3.0383989572927588 1.0192418737035345 1.0095797232964159 216.30052818506508 216.27991659284814 1.0095751023556758 
-30.217390257233092 -110.80930805707867 45.945364576193938 -30.217390257233092 -110.80930805707864 45.945364576193931 -79.332716901539314 4.7105033637570138e-07 5.0886329084297687e-06 -6.0735638726812423e-06 -78.488710636132197 1.5204863410001049e-10 3.6669625669283334e-11 1.7001060292898273e-07 9.7022804003643929e-05 8.2802010037306603e-13 -2.1115843424453250e-12 2.9436223347528852e-12 9.7738367940971506e-05 -30.151660686400003 -110.77310694400001 46.988755992800002 74.715282964229786 0.0000000000000000 0.0000000000000000 0.0000000000000000 0.0000000000000000 3.0192094011012673 3.0385034931366093 1.0192941988494104 1.0095797232964152 211.68670603234338 211.71851549277019 1.0096010277585494 
-18.782426964707138 -103.59440914508242 48.985306472686602 -18.782426964707135 -103.59440914508242 48.985306472686602 -77.546349898767247 -3.5407825798371312e-06 2.5017638338668022e-06 -6.4966746244119912e-06 -77.694391894096626 1.0936102370906475e-10 2.7717259043491538e-11 1.6670640290428196e-07 9.6517441599723380e-05 9.8390799278602101e-13 -2.2509881089208582e-12 2.3722032425488546e-12 9.6492791422588553e-05 -18.735150314000002 -103.56704831999998 50.008419303199993 79.719497061372692 0.0000000000000000 0.0000000000000000 0.0000000000000000 0.0000000000000000 3.0191595823637312 3.0384036935465093 1.0192442179878218 1.0095797232964148 208.74666697746702 208.71398938699789 1.0095762561008130 
-25.550077029074068 -98.508718602812962 49.965664821235436 -25.550077029074068 -98.508718602812976 49.965664821235428 -78.737989914318121 2.3868511565431944e-07 1.1036717715422350e-06 -1.0252198935632437e-05 0.0000000000000000 1.3462664663621560e-10 2.1403115391116501e-11 1.6564082794268131e-07 9.7395570824919571e-05 1.2227601255522398e-13 -1.4869011635886756e-12 2.1968310094620239e-12 0.0000000000000000 -25.491879232152165 -98.487589184379729 50.982237960580505 72.292163684038698 0.0000000000000000 0.0000000000000000 0.0000000000000000 0.0000000000000000 3.0191629918323177 3.0384108639835334 1.0192479799884602 1.0095797232964148 210.63204200924613 210.56629352656176 1.0095781120051373 
-25.350016454651698 -104.25583916219024 108.12590694232978 -25.350016454651712 -104.25583916219024 108.12590694232981 -15.872623704429024 2.3616346500926977e-06 8.1110861799660335e-06 -3.1390232944919163e-07 0.0000000000000000 -5.8224015528549200e-10 6.6231919889798358e-09 1.3483637100479963e-07 8.8916519060377295e-05 -5.7828847570402311e-11 -4.0024548299077823e-12 1.3341464335544107e-10 0.0000000000000000 -25.283559732051039 -104.23282252886388 108.75695162467670 96.378087069502698 0.0000000000000000 0.0000000000000000 0.0000000000000000 0.0000000000000000 3.0212920101719614 3.0426908099618495 1.0213989042977156 1.0108992193627506 107.68899311707305 107.68730075613807 1.0106424211164933 
-25.982372237997872 -118.05042027207062 110.04343447297727 -25.982372237997875 -118.05042027207071 110.04343447297732 -10.750803080817461 2.9788142901045278e-06 8.2258309162632222e-08 -2.6459821767903358e-06 0.0000000000000000 -5.6863420008814828e-09 2.3572177587850693e-08 1.5383894481917336e-07 9.8063507832309285e-05 -4.8876786307430440e-11 5.1510709159803301e-11 1.0277766193286111e-10 0.0000000000000000 -25.913646985361510 -118.01095136745833 110.66456878241424 88.846747377876298 0.0000000000000000 0.0000000000000000 0.0000000000000000 0.0000000000000000 3.0247388714067971 3.0496299345942917 1.0248913043380208 1.0118505876178219 111.91203146925635 111.91210828061152 1.0123696165972544 
-36.333445194747206 -112.74543496023468 111.42779479025018 -36.333445194747206 -112.74543496023476 111.42779479025013 -11.103464884772826 -2.8393278974177452e-06 3.1260930900899407e-06 1.8376076244170578e-06 0.0000000000000000 1.3729261656967139e-08 2.8845710326506186e-08 1.5976327042928728e-07 7.3195589011982559e-05 2.8162218036790128e-11 3.1259904570368739e-12 -2.4087405297408539e-11 0.0000000000000000 -36.236867317722961 -112.72601430119678 112.03758904139967 95.996160021407249 0.0000000000000000 0.0000000000000000 0.0000000000000000 0.0000000000000000 3.0248133858627622 3.0497807676708670 1.0249676456976653 1.0121681954740254 113.14078526894581 113.14084948772776 1.0124068650830467 
-33.465900955894355 -105.10641532170816 104.97190743459238 -33.465900955894341 -105.10641532170816 104.97190743459245 -15.266529509535518 -3.6522530317788740e-07 8.9494252489393235e-06 -2.4746224477158810e-07 0.0000000000000000 2.6368411211724621e-09 9.5562937495567336e-09 1.5919302673807913e-07 9.5763064885800235e-05 -3.3504176346913650e-11 -1.5183716314230204e-11 9.2338613087986034e-11 0.0000000000000000 -33.380789828628046 -105.09637623893835 105.63342596379557 85.433794965156210 0.0000000000000000 0.0000000000000000 0.0000000000000000 0.0000000000000000 3.0237388741124862 3.0476085087619160 1.0238698027001680 1.0115310593738418 113.11591320472688 113.11584422983653 1.0118644788260298 
-112.41780100097461 -160.76088550121474 124.14251049500798 -112.41780100097459 -160.76088550121474 124.14251049500801 -46.749831664057417 5.6190137754733489e-07 -1.7422053216543441e-06 -4.0985195501501736e-06 -46.512741696774178 4.5889010300004257e-10 9.8664257319747151e-11 8.5015866568838292e-08 9.0053002283566172e-05 -7.7970414133184822e-13 2.1900976690309581e-12 6.2788986233241093e-12 8.9453088847113137e-05 -112.21942232800005 -160.66347960400000 124.66427103520003 147.55923210393107 0.0000000000000000 0.0000000000000000 0.0000000000000000 0.0000000000000000 3.0200279101972858 3.0401566191869258 1.0201288557095525 1.0095797232964145 158.25337759742769 158.25337751074412 1.0100148102850197 
-99.710490000933902 -158.18894350161366 116.00882311663500 -99.710490000933945 -158.18894350161369 116.00882311663506 -48.815936018546530 -3.1627238210612868e-06 -2.7995475657314152e-06 -7.8690263855324617e-06 0.0000000000000000 4.1145757287419654e-10 9.5464677829504296e-11 9.3856610039466646e-08 9.6357415270272297e-05 -2.0894647468073270e-12 -2.3473282132827415e-12 4.1869592686700437e-12 0.0000000000000000 -99.532617471171264 -158.09468895943013 116.58484116745363 117.70414803503969 0.0000000000000000 0.0000000000000000 0.0000000000000000 0.0000000000000000 3.0170316530019599 3.0340905510465181 1.0170588314460192 1.0087026475922971 150.87698454997152 150.87698451466932 1.0084928991663771 
-104.52820957132383 -148.93789921387975 120.34466577114947 -104.52820957132377 -148.93789921387983 120.34466577114941 -44.868485765601655 -2.7644176794173408e-06 -3.3514379078006818e-06 -3.4228188001644426e-06 0.0000000000000000 4.2944776554310055e-10 8.3983917043006771e-11 8.9143858961193700e-08 9.1084838228068916e-05 -6.2669153688290334e-12 4.8530726783964549e-12 5.6332312882645893e-12 0.0000000000000000 -104.34256255272837 -148.85497981259945 120.89176065121424 119.29379793442074 0.0000000000000000 0.0000000000000000 0.0000000000000000 0.0000000000000000 3.0172127183008333 3.0344715579078336 1.0172588607744260 1.0088020173274048 144.65962163395173 144.65962164314487 1.0085919623275679 
-100.70989499232407 -162.38244748619061 124.04540714488915 -100.70989499232412 -162.38244748619067 124.04540714488907 -46.217751809563431 -1.6111655021300305e-06 -4.4149959754280832e-06 -3.9182724135262370e-06 0.0000000000000000 4.1519805302203672e-10 1.0068069988822259e-10 8.5121416137923220e-08 9.2191457711120713e-05 -4.0542138409163413e-12 2.3119632451276946e-12 6.6423946873392319e-12 0.0000000000000000 -100.53040969477119 -162.28305471776312 124.56781543385799 141.51484144144280 0.0000000000000000 0.0000000000000000 0.0000000000000000 0.0000000000000000 3.0175171783920161 3.0350937451463493 1.0175766111407425 1.0088508230941982 148.00344892018663 148.00344904264060 1.0087496619785841 
-78.544243539381725 -148.88028679780621 88.689974612723347 -78.544243539381711 -148.88028679780615 88.689974612723319 -51.367154288317870 -8.7239392950061964e-06 -6.3670410677071118e-06 -2.9161170402031082e-06 -51.459403178638802 3.3244702477008836e-10 8.3904147518687466e-11 1.2355025091892458e-07 0.00010679182749115513 -5.2987638278548298e-12 1.2428284653437595e-12 -2.8434953683859709e-13 0.00011036090651609942 -78.400527573600002 -148.79743798799998 89.448228916799977 108.06316173413846 0.0000000000000000 0.0000000000000000 0.0000000000000000 0.0000000000000000 3.0200386231207825 3.0401675804921982 1.0201290817050948 1.0095797232964143 166.87147053346777 166.87147144506386 1.0100149497048609 
-80.295905961229664 -162.63434573089035 87.003505459196958 -80.295905961229664 -162.63434573089035 87.003505459196958 -65.957924819909664 -4.9842924793945685e-06 -1.0715502022470664e-05 -5.4753407492179469e-06 -66.347828454993390 3.3899162296679997e-10 1.0097202240988425e-10 1.2538332150313636e-07 0.00010444978892637815 -3.5029224233054987e-12 -1.1107706664262173e-13 -8.1474044194218251e-13 0.00010466006701994830 -80.149363288800018 -162.53464431600008 87.773009718400019 109.57810873427631 0.0000000000000000 0.0000000000000000 0.0000000000000000 0.0000000000000000 3.0201288629323462 3.0403462613807339 1.0202175100490061 1.0095797232964141 192.51620261606016 192.51620259355226 1.0100589392396095 
-84.448722801942822 -160.28125158694235 94.252043899913502 -84.448722801942807 -160.28125158694237 94.252043899913545 -59.265823553344539 -3.5399167856454234e-06 -7.3898054660721309e-06 -1.0528677224712547e-05 0.0000000000000000 3.5449558219435851e-10 9.8050276231553823e-11 1.1750468353888266e-07 0.00010481044601896027 -1.1780154247986710e-12 6.8593838117442564e-13 6.5528490552059342e-13 0.0000000000000000 -84.295478612813938 -160.18443337667750 94.973195224810283 106.11323630727971 0.0000000000000000 0.0000000000000000 0.0000000000000000 0.0000000000000000 3.0168262850034941 3.0337280800284145 1.0169018882994159 1.0086462868014723 167.29774336190704 167.29774334219985 1.0084145308576529 
-86.630776112393278 -151.47617862610431 91.897627920445103 -86.630776112393278 -151.47617862610426 91.897627920445089 -56.381196972962016 -4.0416265698303740e-06 -9.5313918941920575e-06 -1.0264477320556061e-05 0.0000000000000000 3.6263643130030054e-10 8.7118298686128539e-11 1.2006375826878468e-07 0.00010710313125926863 3.2683650686637712e-12 -4.3900814772666032e-12 1.4566000501345847e-13 0.0000000000000000 -86.474010682800568 -151.39014911596544 92.634484883397832 94.367740677547317 0.0000000000000000 0.0000000000000000 0.0000000000000000 0.0000000000000000 3.0180609483182206 3.0362047604859583 1.0181439244712667 1.0088808298465068 166.39188816626759 166.39188812250953 1.0090311371291680 
-26.077705776190051 -132.49366568485644 138.21674924776124 -26.077705776190047 -132.49366568485647 138.21674924776127 -24.091014665610658 2.7866653317579734e-06 -2.3589737891051590e-06 1.0515929725410015e-05 -25.900515535243397 1.3659636963203600e-10 6.3574159825385834e-11 6.9718171680221985e-08 7.8669247954693753e-05 8.4674715060918897e-12 -1.7665011354979776e-12 -7.6810274524180604e-12 7.4204452057380471e-05 -26.018656529999991 -132.43089511199997 138.64462455200004 49.421240865332216 0.0000000000000000 0.0000000000000000 0.0000000000000000 0.0000000000000000 3.0190173368678619 3.0381152926383050 1.0190980589965954 1.0098902477720257 115.23857532819740 115.23852093960302 1.0095040969981548 
-32.564964831991148 -134.02145586713826 137.16807947857271 -32.564964831991126 -134.02145586713826 137.16807947857265 -22.435691415223122 -1.0194838134193140e-07 1.9711206031273306e-06 5.2038035348342762e-06 -16.055776916469650 1.6080791212513820e-10 6.5458541365082112e-11 7.0857993694772858e-08 8.7069175037526170e-05 1.0731410083099625e-11 1.5808247324733202e-11 1.8136338678547172e-11 5.0531435471910533e-05 -32.495446914399992 -133.95681332000001 137.60295016000006 48.530522504776933 0.0000000000000000 0.0000000000000000 0.0000000000000000 0.0000000000000000 3.0216622393049795 3.0434446660755521 1.0217826078794989 1.0107961521138917 122.32930601106138 122.32928968183433 1.0108322956147484 
-28.481131578035537 -136.50646449224368 139.89333326194006 -28.481131578035544 -136.50646449224365 139.89333326194009 -24.035423562075575 3.1065454950069493e-06 2.3953663394139564e-06 3.3891173763513169e-06 -25.551016897602263 1.4556770719376113e-10 6.8550456977511942e-11 6.7895835620390686e-08 8.5470298466167722e-05 4.3097430663987913e-12 8.8292365495773936e-12 1.1230510478858803e-11 8.4713837243136108e-05 -28.418203856399998 -136.43877710800004 140.31002455199999 44.353383947079159 0.0000000000000000 0.0000000000000000 0.0000000000000000 0.0000000000000000 3.0194625670616850 3.0390090297989047 1.0195465617467951 1.0101345879723407 117.00063960471965 117.00067154670616 1.0097259184744642 
-26.828626519314543 -129.56091424902982 143.45540463969445 -26.828626519314536 -129.56091424902982 143.45540463969442 -26.413776501321664 1.6599071259641487e-06 1.9862990024338604e-06 1.8873907134671336e-06 0.0000000000000000 1.3939955093023038e-10 5.9938734531250759e-11 6.4024124224459911e-08 7.8653220754190800e-05 4.0519052655466693e-12 3.3783111568652455e-12 1.9555978750441042e-12 0.0000000000000000 -26.768365491316434 -129.50173712462359 143.84833436668455 49.139845408488213 0.0000000000000000 0.0000000000000000 0.0000000000000000 0.0000000000000000 3.0199362506877843 3.0399728577718075 1.0200367490598301 1.0101816581074656 123.71721666075049 123.71714656354420 1.0099685668558644 
-40.150520866748941 -65.456702363667134 153.62831188625623 -40.150520866748941 -65.456702363667119 153.62831188625620 -41.297883462404897 -1.2913189057246921e-06 -2.0890302754701374e-07 2.6404736545636042e-06 -41.717332644053720 1.8912548957472628e-10 -1.9619500468692760e-11 5.2966901531448223e-08 7.5892560292911050e-05 -5.4113664243451043e-13 5.9655047607858141e-13 -1.5884351269515823e-12 7.5693698239550348e-05 -40.068761925200000 -65.476070995999990 153.95338104800004 156.95717166164070 0.0000000000000000 0.0000000000000000 0.0000000000000000 0.0000000000000000 3.0189565537861305 3.0379977536281024 1.0190413133192808 1.0094319269747889 144.87838324068042 144.88471395914374 1.0094757904195963 
-52.528491524638348 -59.629267383881071 148.90725249241041 -52.528491524638333 -59.629267383881064 148.90725249241041 -42.059341405717468 -1.6225852697077006e-06 -3.3238381988758147e-07 1.8488220262953276e-06 -42.275209981612257 2.3533619150639668e-10 -2.6849328316203014e-11 5.8098343913570709e-08 7.5458806534091759e-05 7.5425805260774791e-13 -5.3125685258511743e-13 5.9889612325201781e-13 7.5490304987028278e-05 -52.426757905599978 -59.655776269200025 149.26381449600007 118.05125250056595 0.0000000000000000 0.0000000000000000 0.0000000000000000 0.0000000000000000 3.0193898714970184 3.0388694254740587 1.0194796747701884 1.0094472167937452 147.85719084734188 147.85602768647271 1.0096929263215253 
-35.246762872504846 -66.011080805364116 144.61439265578588 -35.246762872504853 -66.011080805364131 144.61439265578588 -39.767120211953639 -3.0694392120191349e-07 1.7517972774669112e-07 5.3281773962161774e-09 -39.696071185242594 1.7082424016989781e-10 -1.8930440548459160e-11 6.2764393460312817e-08 7.5342895378534253e-05 1.9610268627391573e-13 -2.8030743630065327e-13 9.0544436318994438e-13 7.4927729531417911e-05 -35.172917262399999 -66.029770167599992 144.99959110400002 155.12084301790807 0.0000000000000000 0.0000000000000000 0.0000000000000000 0.0000000000000000 3.0192449938932593 3.0385737573617009 1.0193288688199920 1.0095488865937794 143.46079521351515 143.47198979881017 1.0096181896590974 
-50.511306676188646 -66.572126265271265 141.79949476849555 -50.511306676188646 -66.572126265271223 141.79949476849558 -40.747866358114727 -1.5809522347255999e-06 9.1181838726547928e-07 1.0764085891795980e-06 0.0000000000000000 2.2780189887217086e-10 -1.8239049159873844e-11 6.5823988038005168e-08 7.5709546475693002e-05 2.8709891702162539e-13 -5.2404143713926118e-13 1.0497694404966707e-12 0.0000000000000000 -50.412828244765279 -66.590128188430739 142.20347059834828 136.07757377940416 0.0000000000000000 0.0000000000000000 0.0000000000000000 0.0000000000000000 3.0180918983357921 3.0362485874966665 1.0181567370404279 1.0091694253251411 140.70890303521460 140.70393126683439 1.0090374326901792 
-94.729553493192526 -158.81176883104112 76.789225844271215 -94.729553493192512 -158.81176883104109 76.789225844271201 -79.062798820663772 -2.2910161911167082e-06 -3.2022999321013394e-06 -4.5084326098594123e-06 -79.005330760335923 3.9286777650526794e-10 9.6230537427466332e-11 1.3648552399381231e-07 0.00010472383104323054 1.8432668689617393e-12 -1.8292996599068923e-12 1.8136584967114830e-12 0.00010436702353403507 -94.559718839999974 -158.71675115199997 77.626866652000004 109.98746742214213 0.0000000000000000 0.0000000000000000 0.0000000000000000 0.0000000000000000 3.0191145283554728 3.0383134349721908 1.0191990138520544 1.0095797232964148 211.31123292704112 211.31123293974630 1.0095538414529988 
-89.844090320613901 -158.56111575426053 81.633024600627024 -89.844090320613915 -158.56111575426058 81.633024600627024 -72.795761809330003 -7.8360717825212071e-06 -7.3166826853796414e-06 -8.8884769469929849e-06 -70.574539902016710 3.7463724830710804e-10 9.5911209530008547e-11 1.3122066189197312e-07 0.00010375160449961980 6.2335816718432515e-13 -3.0425903386190494e-12 8.6717591509960007e-13 0.00010445275412131514 -89.682139475999989 -158.46640519600001 82.438353807199988 112.88451412247700 0.0000000000000000 0.0000000000000000 0.0000000000000000 0.0000000000000000 3.0192515977593337 3.0385855783453244 1.0193340811233578 1.0095797232964141 200.09492980650063 200.09492978088190 1.0096206898721241 
-102.89287462857183 -155.03442801483084 85.831664745174990 -102.89287462857189 -155.03442801483095 85.831664745175033 -71.610802442328847 -1.6026319445150756e-06 -1.6899948900126335e-06 -1.0735564223253401e-05 0.0000000000000000 4.2334298219759425e-10 9.1539539837093287e-11 1.2665703330583256e-07 0.00010534759788449994 2.2632374987711906e-12 -2.2780533742035570e-12 2.4924871981496766e-12 0.0000000000000000 -102.70986659571734 -154.94403864466588 86.608986019839278 111.02505284862640 0.0000000000000000 0.0000000000000000 0.0000000000000000 0.0000000000000000 3.0193602906932555 3.0388075222925592 1.0194473413156544 1.0094186931941265 199.92196822387078 199.92196819268185 1.0096770256910410 
-100.58635060733796 -167.27930608153449 82.873017580060036 -100.58635060733791 -167.27930608153446 82.873017580060107 -76.643708266225303 -8.3315784157383770e-07 -2.1639661320889079e-06 -1.0214341923381062e-05 0.0000000000000000 4.1473636677724635e-10 1.0675192674280964e-10 1.2987287090204802e-07 0.00010338656084634776 1.6319849083341762e-12 -2.7874086708550190e-13 1.0559376207121838e-12 0.0000000000000000 -100.40706467681501 -167.17391327890167 83.670075146830683 105.53983917324770 0.0000000000000000 0.0000000000000000 0.0000000000000000 0.0000000000000000 3.0191450792793391 3.0383748196915268 1.0192298473394918 1.0094492529006591 206.65762929349242 206.65762929727833 1.0095691673823739 
-114.82632762375751 -99.828598071395774 95.861851105823632 -114.82632762375754 -99.828598071395774 95.861851105823661 -57.429090236656478 -1.7435291454416979e-06 -2.3248864550285451e-06 -7.5654806524374615e-06 -58.321892354395494 4.6789262392457497e-10 2.3034602003590976e-11 1.1575493275017834e-07 0.00010676822543132554 1.8557058057737816e-12 2.5647593806916970e-12 9.2539887307048756e-12 0.00010696329741231662 -114.62406224400000 -99.805851428000011 96.572263865600007 85.211636250682801 0.0000000000000000 0.0000000000000000 0.0000000000000000 0.0000000000000000 3.0193664690903455 3.0388155667090682 1.0194491604520783 1.0090285723669656 174.42244165557619 174.42244379423670 1.0096775011842125 
-111.28411132222823 -91.109705512191155 99.535360688602353 -111.28411132222823 -91.109705512191127 99.535360688602381 -53.532662383753802 -7.7454489569764150e-07 -4.7060715765199770e-08 -8.3428127537985877e-06 -53.033040694932886 4.5466756401491004e-10 1.2212161837332758e-11 1.1176209335772570e-07 0.00010307374855618716 -3.4153131766140142e-14 -2.1194930168364116e-12 9.7060286396855550e-12 0.00010124908974460781 -111.08756211600000 -91.097641973600034 100.22126851279998 99.535403830130534 0.0000000000000000 0.0000000000000000 0.0000000000000000 0.0000000000000000 3.0202260970119830 3.0405468840012166 1.0203209228703989 1.0093711287861391 170.78474443935508 170.78474336141929 1.0101096918626473 
-113.10383379528460 -97.675913885546549 107.75573929248974 -113.10383379528459 -97.675913885546578 107.75573929248975 -48.030414380272433 -8.3043781320736295e-07 -5.5361543556123097e-07 -7.6712546488464209e-06 -47.965610657412533 4.6145699414412706e-10 2.0365514830089637e-11 1.0282712770148805e-07 9.6292501503181423e-05 2.8428296491159819e-12 6.3937779052032745e-12 1.0376046323498327e-11 9.6021904852567380e-05 -112.90434805199999 -97.655804887999992 108.38681131359999 128.09762094244454 0.0000000000000000 0.0000000000000000 0.0000000000000000 0.0000000000000000 3.0193789032713121 3.0388507588888993 1.0194719823412404 1.0093970797463219 158.61494062280048 158.61493731066460 1.0096889978037491 
-107.34485862364198 -103.86889845921704 99.866465894191862 -107.34485862364195 -103.86889845921709 99.866465894191904 -52.649900588680012 -7.7471594291484639e-06 -8.8979468603282489e-07 -8.8976582221341393e-06 0.0000000000000000 4.3995597096002653e-10 2.8054489287221426e-11 1.1140220301797399e-07 0.00010557847930494431 -7.9784441729248796e-13 5.0324863955494783e-12 6.9932640692695096e-12 0.0000000000000000 -107.15466629968294 -103.84120130723400 100.55016500991876 102.24201981555134 0.0000000000000000 0.0000000000000000 0.0000000000000000 0.0000000000000000 3.0173315738229296 3.0347039590830902 1.0173723769086811 1.0086227556556941 158.11061757660136 158.11061468315174 1.0086483877182468 
-26.955840893419566 -115.41057757691036 102.69698166683406 -26.955840893419573 -115.41057757691034 102.69698166683413 -13.693779557116624 5.3189972006588343e-06 1.6333933520311144e-06 -7.4598473954690032e-06 0.0000000000000000 -7.0082277126951243e-09 2.3347614798566984e-08 1.5565960118688465e-07 0.00013534366210608869 -1.0947204541232254e-12 4.4421545181581538e-11 1.0802016196631769e-10 0.0000000000000000 -26.889884864405381 -115.37486796036181 103.37575244326078 96.382960025775517 0.0000000000000000 0.0000000000000000 0.0000000000000000 0.0000000000000000 3.0230905463453195 3.0463130449017801 1.0232226897758705 1.0114963492686120 110.09748914328445 110.09755115439212 1.0115446459440927 
-109.76242779094902 -103.64920132497112 151.86058876506664 -109.76242779094902 -103.64920132497110 151.86058876506664 -42.591976863673189 1.3386940351017170e-07 4.3665174114238703e-07 7.9127250995779184e-08 -42.799238505096255 4.4898777404323015e-10 2.7778571110026462e-11 5.4888282363663159e-08 7.3469744063892528e-05 2.2334844479526091e-13 5.3940761104525674e-13 2.1017353984401826e-13 7.2938834588198950e-05 -109.56833416800004 -103.62177336400003 152.19744990400002 70.302883591683823 0.0000000000000000 0.0000000000000000 0.0000000000000000 0.0000000000000000 3.0186885738373874 3.0374521562792505 1.0187636656583086 1.0093620812806825 146.18507143591003 146.18512203497514 1.0093382763848191 