# vtk DataFile Version 3.0
vtk output
ASCII
DATASET POLYDATA
POINTS 1598 float
8.4711 145.25 62.87
8.4867 145.16 63.084
8.6071 144.95 64.024
8.985 144.59 65.766
9.0022 144.58 65.856
9.0134 144.57 65.959
9.044 144.55 66.235
9.0732 144.56 66.435
9.2803 144.54 67.378
9.3148 144.53 67.645
9.3873 144.52 68.267
9.4238 144.46 68.74
9.5294 144.35 69.477
9.6084 144.28 69.793
9.8544 144.04 70.807
9.8775 144.03 70.935
10.019 143.93 71.683
10.112 143.85 72.06
10.154 143.8 72.275
10.179 143.77 72.344
10.405 143.61 72.919
10.437 143.58 73.033
10.538 143.51 73.394
10.656 143.42 73.868
10.688 143.37 74.04
10.719 143.33 74.207
10.98 143.09 75.362
11.144 142.94 76.146
11.207 142.94 76.313
11.234 142.92 76.39
11.297 142.89 76.654
11.397 142.86 77.072
11.462 142.82 77.467
11.652 142.77 78.201
11.75 142.72 78.607
11.898 142.64 79.245
11.934 142.62 79.41
11.929 142.6 79.678
11.94 142.59 80.096
11.975 142.56 80.494
11.995 142.52 80.852
12.05 142.45 81.583
12.075 142.39 82.097
12.271 142.19 83.56
12.28 142.16 83.761
12.277 142.15 83.823
12.275 142.14 83.856
12.261 142.1 84.008
12.248 142.06 84.114
12.234 142.02 84.22
12.354 141.9 85.406
12.384 141.84 85.857
12.456 141.67 86.824
12.469 141.64 86.971
12.475 141.61 87.256
12.476 141.6 87.43
12.571 141.54 87.963
12.596 141.48 88.274
12.613 141.44 88.495
12.622 141.43 88.594
12.622 141.43 88.595
12.69 141.26 89.502
12.693 141.26 89.53
12.818 141.19 90.195
12.845 141.01 91.421
12.819 140.85 91.99
12.785 140.73 92.438
12.737 140.63 93.01
12.689 140.66 94.103
12.698 140.76 94.618
12.697 141 95.506
12.695 141.06 95.669
12.649 141.05 95.882
12.609 141.01 96.231
12.586 140.96 96.317
12.526 140.89 96.639
12.465 140.95 97.538
12.297 140.95 99.138
12.274 140.96 99.362
12.261 140.96 99.579
12.191 140.93 100.29
12.138 140.88 100.8
12.133 140.83 101.04
12.099 140.78 101.59
12.095 140.78 101.63
12.059 140.75 101.84
12.046 140.74 101.91
11.966 140.64 102.53
11.93 140.62 102.91
11.902 140.62 103.35
11.86 140.65 104.01
11.853 140.65 104.09
11.778 140.69 104.66
11.777 140.69 104.68
11.777 140.69 104.68
11.768 140.69 104.87
11.783 140.69 105.11
11.835 140.72 105.52
11.856 140.73 105.64
11.968 140.68 106.06
11.982 140.66 106.2
12.14 140.66 106.96
12.186 140.67 107.15
12.272 140.69 107.52
12.463 140.72 108.49
12.484 140.73 108.59
12.519 140.73 108.79
12.568 140.74 109.04
12.719 140.84 109.52
12.766 140.87 109.69
12.972 140.87 109.99
13.373 140.9 110.53
13.605 140.88 110.97
14.258 140.84 112.25
14.632 140.83 112.95
14.71 140.82 113.15
15.081 140.81 114.1
15.086 140.81 114.12
15.518 140.87 115.14
15.696 140.81 115.49
15.742 140.77 115.59
15.914 140.66 115.98
15.961 140.63 116.08
16.043 140.61 116.23
16.096 140.59 116.33
16.096 140.59 116.33
16.195 140.55 116.54
16.659 140.52 117.47
16.892 140.5 117.94
17.196 140.52 118.5
17.465 140.56 119.02
17.65 140.55 119.36
17.667 140.55 119.39
17.697 140.56 119.45
18.008 140.62 120.13
18.534 140.68 121.04
18.548 140.68 121.07
18.843 140.61 121.64
18.99 140.6 121.99
18.867 143.825 124.242
18.8835 143.825 124.274
19.3485 143.753 124.779
20.4247 143.619 125.884
20.6052 143.598 126.105
20.6093 143.598 126.105
20.6887 143.598 126.189
20.7959 143.598 126.305
20.8825 143.588 126.411
20.9649 143.608 126.537
21.0124 143.608 126.6
21.3773 143.608 127.011
21.467 143.608 127.137
21.8722 143.608 127.663
22.167 143.619 128.032
22.2124 143.619 128.084
22.2959 143.619 128.2
22.3495 143.619 128.263
22.3495 143.619 128.263
22.401 143.619 128.337
22.401 143.619 128.337
22.6546 143.629 128.842
22.6608 143.619 128.853
22.7423 143.577 129.042
22.7639 143.567 129.084
22.7639 143.567 129.084
22.8454 143.526 129.242
23.0144 143.443 129.579
23.034 143.433 129.621
23.5938 143.227 130.558
23.7598 143.175 130.842
23.7598 143.175 130.842
23.8876 143.113 131.116
23.9557 143.082 131.263
24.001 143.062 131.347
24.0361 143.052 131.411
24.0454 143.052 131.432
24.0454 143.052 131.432
24.0608 143.052 131.463
24.1845 143.031 131.642
24.3588 143.021 131.895
24.5299 143 132.158
24.6639 142.979 132.4
24.7021 142.979 132.463
24.7155 142.969 132.516
24.7876 142.938 132.8
24.9485 142.907 133.253
24.9732 142.897 133.316
25.0464 142.856 133.505
25.134 142.825 133.695
25.1567 142.814 133.758
25.1701 142.814 133.8
25.2268 142.804 133.916
25.3474 142.784 134.147
25.3598 142.773 134.179
25.5062 142.753 134.558
25.7031 142.732 134.842
25.7082 142.732 134.863
25.9206 142.701 135.221
26.0351 142.691 135.347
26.0361 142.691 135.347
26.2206 142.68 135.632
26.2546 142.68 135.663
26.3216 142.68 135.768
26.4722 142.649 136.042
26.4784 142.649 136.053
26.6021 142.639 136.232
26.7722 142.639 136.547
26.8825 142.639 136.789
26.9289 142.649 136.905
26.9361 142.649 136.916
27.0577 142.629 137.242
27.1237 142.629 137.389
27.1392 142.629 137.421
27.2454 142.629 137.632
27.3402 142.629 137.8
27.4567 142.639 138
27.4598 142.639 138.011
27.6155 142.639 138.579
27.6381 142.639 138.611
27.7041 142.66 139.095
27.7392 142.67 139.221
27.7608 142.67 139.305
27.7887 142.68 139.442
27.8216 142.691 139.537
27.9825 142.722 139.905
27.999 142.711 139.947
28.0959 142.649 140.295
28.0928 142.577 140.558
28.1371 142.567 140.695
28.2443 142.515 140.958
28.3175 142.495 141.084
28.4247 142.474 141.242
28.4289 142.474 141.263
28.4938 142.443 141.463
28.5485 142.402 141.642
28.732 142.309 142.2
28.7763 142.289 142.337
28.9021 142.227 142.705
29.1794 142.144 143.495
29.2474 142.134 143.621
29.3165 142.124 143.747
29.4845 142.134 144.032
29.5113 142.134 144.084
29.6237 142.103 144.211
29.7722 142.041 144.411
29.8938 142 144.589
30.0732 141.907 144.884
30.2175 141.856 145.074
30.3454 141.794 145.421
30.4323 141.763 145.578
30.4426 141.763 145.599
30.7095 141.723 145.986
30.8543 141.693 146.216
30.9991 141.683 146.415
31.0974 141.673 146.572
31.116 141.673 146.593
31.1253 141.673 146.614
31.1439 141.663 146.645
31.2413 141.642 146.855
31.5325 141.51 147.609
31.6537 141.469 147.933
31.6744 141.459 147.975
31.8235 141.408 148.268
31.9984 141.368 148.572
32.0149 141.368 148.593
32.0583 141.368 148.656
32.0997 141.368 148.708
32.256 141.369 149.054
32.3193 141.359 149.221
32.3888 141.328 149.452
32.6806 141.216 149.996
32.7034 141.206 150.038
32.8887 141.145 150.415
32.9892 141.104 150.634
33.13 141.063 150.928
33.1828 141.053 151.011
33.3121 141.033 151.221
33.4384 141.003 151.461
33.4953 140.993 151.577
33.5005 140.982 151.587
33.545 140.972 151.692
33.5492 140.972 151.713
33.5751 140.973 151.775
33.6849 140.963 152.069
33.7139 140.953 152.153
33.7191 140.953 152.163
33.7471 140.953 152.236
33.7636 140.953 152.268
33.8423 140.953 152.414
33.8423 140.953 152.414
33.9623 140.943 152.634
34.0389 140.944 152.76
34.194 140.975 153
34.3587 141.017 153.367
34.6152 141.099 154.062
34.6955 141.12 154.241
34.9254 141.161 154.705
35.2861 141.254 155.379
35.4108 141.244 155.589
35.814 141.285 156.168
35.9254 141.295 156.294
36.0832 141.316 156.483
36.2038 141.326 156.62
36.3028 141.337 156.736
36.4183 141.368 156.873
36.4194 141.368 156.873
36.5771 141.409 157.094
36.6472 141.429 157.22
36.6482 141.429 157.22
36.673 141.429 157.262
36.674 141.429 157.262
37.009 141.481 157.852
37.042 141.491 157.925
37.1635 141.553 158.294
37.2552 141.573 158.494
37.4644 141.687 158.874
37.5364 141.769 158.99
37.6309 141.903 159.191
37.9826 142.345 159.783
38.0247 142.397 159.835
38.0998 142.499 159.931
38.2284 142.685 160.11
38.25 142.726 160.142
38.25 142.726 160.142
38.2777 142.767 160.184
38.2777 142.767 160.184
38.3825 142.993 160.375
38.4307 143.127 160.481
38.4317 143.137 160.481
38.4624 143.24 160.555
38.4635 143.24 160.555
38.5649 143.57 160.809
38.5875 143.652 160.862
38.5885 143.652 160.862
38.6028 143.703 160.905
38.6028 143.703 160.905
38.6572 143.868 161.021
38.6582 143.868 161.032
38.7752 144.177 161.244
38.807 144.3 161.318
38.8357 144.372 161.371
38.956 144.568 161.53
38.99 144.619 161.561
38.99 144.619 161.572
38.9993 144.63 161.572
39.0548 144.733 161.646
39.063 144.743 161.657
39.0743 144.763 161.657
39.3397 145.289 161.89
39.3715 145.371 161.922
39.5277 145.814 162.071
39.5636 145.906 162.113
39.6109 146.05 162.166
39.6919 146.297 162.314
39.7115 146.328 162.336
39.8603 146.719 162.59
39.8747 146.75 162.611
39.8819 146.761 162.622
39.92 146.822 162.664
39.92 146.822 162.675
40.1276 147.234 162.982
40.3106 147.512 163.193
40.43 147.656 163.32
40.7284 147.996 163.658
40.8437 148.109 163.764
40.8818 148.15 163.796
40.955 148.222 163.849
41.2557 148.49 164.081
41.3329 148.552 164.134
41.336 148.552 164.134
41.3844 148.593 164.197
41.4472 148.644 164.261
41.5851 148.768 164.398
41.7529 148.912 164.578
41.8835 149.077 164.778
41.9041 149.097 164.8
42.0544 149.262 164.937
42.2284 149.426 165.117
42.2716 149.468 165.159
42.2727 149.468 165.159
42.4642 149.643 165.339
42.5136 149.674 165.381
42.6959 149.828 165.486
42.967 150.034 165.581
43.4606 150.415 165.729
43.4647 150.415 165.74
43.5235 150.457 165.75
44.0007 150.735 165.94
44.0203 150.755 165.951
44.0697 150.807 165.982
44.0821 150.817 165.993
44.2922 150.982 166.13
44.6352 151.312 166.331
44.8175 151.497 166.426
44.8196 151.497 166.426
44.9824 151.59 166.479
45.0474 151.631 166.51
45.0484 151.631 166.51
45.3298 151.786 166.595
45.5216 151.93 166.616
45.5968 151.981 166.626
45.5978 151.981 166.626
45.6257 152.002 166.637
45.6257 152.002 166.637
45.6483 152.023 166.637
45.6483 152.023 166.637
45.7576 152.105 166.658
45.9524 152.28 166.679
45.9978 152.322 166.69
46.0524 152.363 166.7
46.0936 152.404 166.711
46.2018 152.517 166.732
46.346 152.682 166.774
46.4635 152.785 166.806
46.5696 152.899 166.827
46.615 152.94 166.827
46.6572 152.981 166.838
46.6944 153.012 166.838
46.816 153.146 166.838
46.8788 153.218 166.849
46.8788 153.218 166.849
46.9613 153.301 166.859
47.0487 153.393 166.86
47.209 153.588 166.861
47.4054 153.804 166.831
47.4558 153.866 166.821
47.633 154.072 166.8
47.6567 154.093 166.8
47.7196 154.155 166.789
47.8268 154.289 166.779
47.8557 154.32 166.779
48.1794 154.753 166.779
48.1887 154.763 166.768
48.1887 154.763 166.768
48.2691 154.856 166.779
48.5216 155.165 166.8
48.5907 155.258 166.811
[...]
CELL_DATA 1597
scalars Radius float
LOOKUP_TABLE default
9.4449 9.4081 9.5032 9.5143 9.5195 9.5365 9.5369 9.5091 9.4949 9.4782 9.4699 9.445 9.4072 9.3353 9.3207 9.2613 9.2256 9.2043 9.1905 9.0676 9.0358 8.9426 8.8319 8.7942 8.7699 8.6125 8.5805 8.5861 8.5825 8.5436 8.4974 8.449 8.3443 8.308 8.2861 8.2863 8.2365 8.1651 8.086 8.0245 7.9303 7.8926 7.8246 7.8176 7.8128 7.8099 7.7952 7.782 7.7683 7.6777 7.672 7.7281 7.7439 7.752 7.7506 7.6779 7.6371 7.6129 7.6021 7.602 7.5532 7.5528 7.5327 7.4797 7.5026 7.5422 7.6001 7.7566 7.8554 8.0535 8.0993 8.159 8.2247 8.2345 8.2377 8.2396 8.4287 8.4765 8.519 8.6744 8.7952 8.8395 8.9031 8.9056 8.9298 8.938 9.0038 9.0448 9.0995 9.2029 9.2131 9.3067 9.3083 9.3083 9.3252 9.3263 9.2923 9.2822 9.1716 9.1392 8.8991 8.8415 8.7418 8.554 8.5396 8.5142 8.49 8.3995 8.3738 8.2104 7.917 7.6944 7.1517 6.9596 6.9061 6.6922 6.6899 6.6175 6.5608 6.5435 6.4949 6.4838 6.4639 6.452 6.452 6.4125 6.3284 6.3149 6.3346 6.3974 6.4633 6.4702 6.4813 6.6129 6.7773 6.7805 6.9048 6.9699 7.0393 7.0437 7.004 7.0884 7.0703 7.0691 7.065 7.0564 7.0475 7.0203 7.0018 6.8885 6.8603 6.7722 6.7298 6.7261 6.7192 6.7144 6.7144 6.7107 6.7107 6.6783 6.6725 6.5999 6.5836 6.5835 6.5169 6.3882 6.3756 6.0948 6.0379 6.0377 5.9932 5.9745 5.964 5.9559 5.9538 5.9538 5.9483 5.9124 5.8672 5.8352 5.8139 5.8094 5.8043 5.7711 5.7377 5.7257 5.6956 5.6637 5.6541 5.6486 5.6287 5.5902 5.5856 5.5349 5.5064 5.5048 5.4714 5.4661 5.466 5.4591 5.4594 5.4581 5.4519 5.4518 5.4512 5.4494 5.4502 5.4528 5.4523 5.4476 5.4521 5.4535 5.4626 5.4803 5.5015 5.5017 5.5391 5.546 5.5648 5.5753 5.5845 5.5988 5.6087 5.6553 5.6555 5.6396 5.6282 5.6186 5.583 5.5685 5.547 5.5448 5.5094 5.4776 5.3817 5.3627 5.3245 5.31 5.3087 5.3125 5.3124 5.3079 5.2761 5.2258 5.1945 5.1519 5.106 5.0474 5.0149 5.0112 4.9339 4.9046 4.874 4.8571 4.8533 4.8517 4.8454 4.8162 4.7574 4.7647 4.764 4.7674 4.7665 4.7667 4.7661 4.7653 4.7475 4.7431 4.7046 4.6475 4.6453 4.6353 4.6371 4.6436 4.6465 4.6497 4.6473 4.6439 4.6432 4.6373 4.6365 4.6318 4.6152 4.6134 4.6131 4.6112 4.6098 4.6011 4.601 4.5911 4.5882 4.5625 4.4914 4.4118 4.403 4.3991 4.4515 4.4547 4.4622 4.4641 4.474 4.4805 4.4858 4.4909 4.4909 4.4936 4.4861 4.486 4.4828 4.4827 4.4656 4.4623 4.4438 4.4502 4.3949 4.3421 4.2807 4.1178 4.1008 4.0554 3.9732 3.9548 3.9545 3.9318 3.9317 3.8291 3.7721 3.7707 3.7321 3.7307 3.6319 3.6122 3.6121 3.6006 3.6002 3.563 3.5625 3.5113 3.4972 3.4833 3.4152 3.3974 3.3973 3.3928 3.3599 3.3532 3.3444 3.1407 3.1171 3.0212 3.0066 2.984 2.9231 2.9128 2.819 2.8128 2.809 2.79 2.7898 2.7073 2.6891 2.6849 2.6826 2.6808 2.682 2.6833 2.7008 2.7099 2.71 2.7097 2.7129 2.7147 2.7321 2.7728 2.7765 2.7765 2.7793 2.7786 2.7786 2.7793 2.7787 2.7625 2.7271 2.7166 2.7169 2.7178 2.7682 2.7683 2.768 2.7681 2.7772 2.8266 2.868 2.8681 2.8701 2.8658 2.8657 2.8319 2.7979 2.7885 2.7884 2.7853 2.7852 2.7824 2.7824 2.7701 2.75 2.7448 2.7377 2.7311 2.7116 2.69 2.6781 2.668 2.6642 2.6601 2.6557 2.6396 2.6332 2.6332 2.6281 2.6224 2.6154 2.5988 2.594 2.5834 2.5827 2.5815 2.5754 2.5736 2.5207 2.5202 2.5202 2.5131 2.5099 2.5022 2.4958 2.4899 2.4979 2.5104 2.5123 2.519 2.5181 2.4863 2.4857 2.4819 2.4619 2.4217 2.4129 2.4105 2.4018 2.3952 2.348 2.3094 2.3081 2.2968 2.2649 2.2394 2.1986 2.1262 2.0588 2.0459 2.0404 2.0402 2.0009 2.0005 1.9893 1.988 1.9591 1.9466 1.9425 1.9352 1.9215 1.9014 1.8755 1.8685 1.8641 1.864 1.8482 1.8101 1.7753 1.7743 1.7578 1.755 1.7397 1.7342 1.7344 1.7309 1.7415 1.7415 1.7138 1.7134 1.7157 1.7154 1.7263 1.7323 1.7354 1.7381 1.764 1.8098 1.8162 1.8245 1.8386 1.847 1.8606 1.9048 1.9269 1.9723 1.9857 1.9858 2.1092 2.1586 2.2715 2.2926 2.3029 2.3172 2.3286 2.311 2.3104 2.2932 2.2662 2.2567 2.2434 2.2278 2.2204 2.2094 2.2061 2.2029 2.2029 2.2048 2.2062 2.2082 2.2079 2.2287 2.2297 2.2323 2.2466 2.2484 2.2519 2.2628 2.2887 2.2855 2.2809 2.2795 2.2795 2.2462 2.246 2.2314 2.2314 2.213 2.2127 2.2196 2.2202 2.2327 2.2605 2.2695 2.2696 2.2716 2.2654 2.2609 2.2603 2.2523 2.2137 2.2111 2.2072 2.1906 2.1876 2.1826 2.1823 2.1629 2.1602 2.1376 2.1364 2.1006 2.1 2.0707 2.0705 2.0515 2.0466 2.041 2.0357 2.0269 2.0205 2.0205 2.0128 1.9973 1.9948 1.9893 1.9803 1.9719 1.9671 1.9635 1.9613 1.9421 1.9407 1.9408 1.9409 1.9393 1.9495 1.9501 1.9501 1.9581 1.9597 1.9949 2.0155 2.0122 2.0087 2.0049 1.995 1.9912 2.0041 2.0074 2.0076 1.9999 1.9893 1.9852 1.9793 1.9736 1.9703 1.969 1.9415 1.9399 1.9442 1.9618 2.004 2.0077 2.0097 2.0146 2.0092 2.0092 1.9889 1.9877 1.9757 1.9608 1.9606 1.9558 1.9554 1.9502 1.9502 1.9435 1.9188 1.9189 1.9146 1.9005 1.9004 1.8992 1.8992 1.8722 1.859 1.859 1.859 1.8637 1.8619 1.8512 1.8289 1.8283 1.8267 1.8259 1.8361 1.8371 1.8309 1.8169 1.7936 1.7878 1.7602 1.7474 1.7367 1.722 1.7164 1.7047 1.6654 1.6608 1.6033 1.5688 1.5683 1.5512 1.551 1.5159 1.5157 1.4983 1.4874 1.3762 1.3758 1.3532 1.3387 1.3235 1.2634 1.2488 1.2078 1.2059 1.1853 1.1789 1.1595 1.13 1.1151 1.0608 1.0447 1.0443 1.0293 0.91021 0.90995 0.86792 0.88404 0.98054 0.98563 1.046 1.0775 1.0787 1.092 1.1048 1.1049 1.1298 1.1304 1.1497 1.1652 1.1757 1.1706 1.1796 1.1812 1.1827 1.2142 1.2134 1.2114 1.2089 1.1598 1.135 1.1339 1.1381 1.1425 1.1429 1.1487 1.1495 1.1503 1.1442 1.1436 1.1405 1.1413 1.1915 1.1936 1.246 1.2552 1.2553 1.2674 1.2738 1.2758 1.2927 1.3346 1.3516 1.3503 1.3335 1.2933 1.2589 1.2449 1.234 1.1979 1.1951 1.1796 1.1836 1.183 1.1723 1.1612 1.1386 1.1307 1.1282 1.1235 1.0897 1.0516 1.0489 1.0498 1.0418 1.0401 1.0385 1.0439 1.1257 1.1458 1.1545 1.1719 1.1736 1.1736 1.1738 1.1616 1.1775 1.1795 1.1814 1.1975 1.1982 1.2284 1.25 1.2778 1.2826 1.2822 1.2804 1.279 1.266 1.2599 1.2517 1.2456 1.231 1.2388 1.2145 1.2083 1.2045 1.2696 1.3217 1.3166 1.3022 7.09 7.0918 7.0912 7.0787 7.0073 6.9863 6.9862 6.9437 6.9311 6.9309 6.9066 6.881 6.8362 6.7842 6.7805 6.7804 6.7243 6.6653 6.633 6.6329 6.6 6.5834 6.5429 6.4562 6.4312 6.3802 6.38 6.3375 6.3269 6.3268 6.2234 6.1201 6.1165 6.1164 6.079 6.0225 6.0094 5.9667 5.9623 5.929 5.8828 5.8542 5.8266 5.7726 5.7724 5.7593 5.7585 5.708 5.6953 5.6701 5.67 5.5861 5.4907 5.2562 5.0648 5.0403 5.0073 4.9906 4.9628 4.9181 4.7667 4.7642 4.6475 4.5995 4.4768 4.4679 4.3892 4.386 4.3468 4.2857 4.2744 4.2333 4.2033 4.2002 4.1491 4.128 4.1101 4.0681 4.0626 4.0407 3.9767 3.9753 3.929 3.7657 3.7196 3.7148 3.7105 3.7104 3.7066 3.7065 3.6301 3.617 3.5841 3.5783 3.5782 3.572 3.566 3.5631 3.5617 3.5406 3.5256 3.5222 3.49 3.4885 3.4626 3.447 3.4206 3.4085 3.2199 3.1623 3.1454 3.1643 3.15 3.1516 3.1517 3.1526 3.1526 3.1186 3.1327 3.2751 3.3247 3.2987 3.2828 3.2824 3.277 3.2292 3.1432 3.1096 3.0461 3.0455 2.8939 2.8165 2.6988 2.6036 2.451 2.4106 2.3965 2.3606 2.3567 2.2387 2.2198 2.2187 2.2018 2.1785 2.1639 2.1476 2.1147 2.0865 2.0444 2.0094 2.0046 1.9788 1.9193 1.8862 1.8673 1.8513 1.772 1.7711 1.716 1.6803 1.6756 1.64 1.64 1.6383 1.6349 1.6449 1.6551 1.6922 1.7492 1.7638 1.8 1.8457 1.8893 1.905 1.9981 2.0245 2.0261 2.0353 2.0333 2.0259 2.0258 2.0245 2.0244 2.0049 1.9896 1.9896 1.9642 1.963 1.961 1.9458 1.8569 1.8566 1.8407 1.8405 1.8214 1.8212 1.8026 1.8024 1.7974 1.806 1.8439 1.8991 1.9787 1.9943 1.9969 2.035 2.0619 2.0803 2.0785 2.058 2.053 2.0446 2.0544 2.0542 2.0522 2.0092 1.9823 1.977 1.9556 1.9431 1.9415 1.9326 1.9307 1.9307 1.9166 1.884 1.8782 1.8767 1.8697 1.8463 1.8288 1.8275 1.8274 1.826 1.826 1.8445 1.834 1.7986 1.761 1.7338 1.6771 1.6737 1.6645 1.6542 1.6438 1.6331 1.6298 1.625 1.6145 1.6141 1.6129 1.598 1.5946 1.5946 1.6036 1.6608 1.689 1.7057 1.7107 1.7161 1.7303 1.7373 1.7875 1.7951 1.7952 1.7959 1.7836 1.7797 1.7505 1.7508 1.7515 1.7516 1.753 1.7626 1.7747 1.7755 1.7646 1.745 1.7315 1.7467 1.748 1.7819 1.8114 1.8093 1.7905 1.7552 1.7422 1.6437 1.5873 1.5818 1.5282 1.5249 1.5247 1.502 1.4827 1.4148 1.4129 1.3954 1.3178 1.2935 1.2881 1.2569 1.2546 1.2346 1.2333 1.2245 1.1673 1.1636 1.1494 1.1494 1.134 1.134 1.12 1.1033 1.1073 1.1104 1.1104 1.1141 1.1141 1.1353 1.1377 1.1616 1.1643 1.1665 1.1627 1.1542 1.1493 1.1462 1.1466 1.1464 1.1362 1.1425 1.1435 1.1431 1.1405 1.122 1.1335 1.1346 1.1575 1.1577 1.1579 1.1547 1.1527 1.152 1.1483 1.143 1.1222 1.1043 1.0959 1.0813 1.0631 1.0373 1.036 1.0185 1.0159 1.0293 1.0421 1.1149 1.1194 1.1165 1.1225 1.1226 1.1029 1.0363 1.0162 0.98284 0.98174 0.90273 0.90177 0.89715 0.86257 0.84643 0.82724 0.80015 0.79967 0.79021 0.82418 0.82631 0.82722 0.81103 0.79533 0.77464 0.77543 0.77392 0.78021 0.79564 0.80433 0.80628 0.8067 0.83095 0.87336 0.87622 0.89301 0.89661 0.89828 0.89961 0.89964 0.90913 0.90925 0.95893 0.97772 0.99914 1.0058 1.0327 1.0558 1.0791 1.1113 1.1167 1.1169 1.0852 1.0363 1.0222 1.022 0.97349 0.97329 0.92641 0.92157 0.87371 0.87146 0.83011 0.81837 0.77052 0.73055 0.70141 0.69205 0.67799 0.66129 4.4996 4.4648 4.4624 4.4488 4.3106 4.295 4.2871 4.2047 4.1569 4.1212 4.0539 4.0243 4.0219 3.9498 3.952 3.9536 3.9555 3.9905 3.9652 3.9605 3.9191 3.8706 3.8308 3.7982 3.7418 3.6828 3.6757 3.6512 3.5932 3.5773 3.4923 3.4232 3.3994 3.373 3.3183 3.3181 3.3134 3.2951 3.2906 3.1752 3.1557 3.1556 3.079 3.0781 3.0206 3.0203 2.9641 2.9635 2.9407 2.8499 2.837 2.7202 2.5817 2.5778 2.338 2.3339 2.1747 2.1259 2.0628 2.0295 1.9814 1.9806 1.9179 1.9174 1.8863 1.8635 1.8082 1.7997 1.7454 1.7421 1.7152 1.6664 1.655 1.6249 1.5762 1.5641 1.5256 1.5008 1.4929 1.4975 1.5134 1.563 1.5711 1.6274 1.6392 1.865 1.9328 1.9526 1.9713 1.9712 1.971 1.9416 1.8425 1.8087 1.7796 1.7283 1.5965 1.5277 1.5264 1.4958 1.4761 1.4493 1.424 1.4184 1.4219 1.4257 1.4279 1.4304 1.4417 1.478 1.5468 1.6366 1.6476 1.7046 1.7092 1.7153 1.7164 1.716 1.7107 1.7202 1.7341 1.7499 1.7763 1.7798 1.7784 1.8034 1.807 1.8088 1.8024 1.7738 1.7721 1.7661 1.6959 1.6858 1.6028 1.5997 1.5324 1.5282 1.5214 1.4961 1.5039 1.5179 1.5228 1.5301 1.5424 1.6275 1.6622 1.7687 1.7793 1.8072 1.7935 1.7497 1.7416 1.6656 1.582 1.5227 1.447 1.4211 1.4235 1.452 1.4518 1.4509 1.4436 1.4238 1.4112 1.4341 1.4383 1.4733 1.4735 1.478 1.4781 1.4521 1.4444 1.4329 1.4083 1.3776 1.3857 1.3923 1.3923 1.3921 1.3921 1.3909 1.3909 1.3887 1.3887 1.3867 1.3753 1.3713 1.3628 1.3585 1.3589 1.3587 1.3544 1.3625 1.3627 1.3621 1.3662 1.3699 1.3473 1.3041 1.2969 1.2215 1.1599 1.1582 1.1641 1.1459 1.1324 1.1311 1.0996 1.0919 1.0889 1.0832 1.0607 1.0317 1.0315 1.0278 1.0179 1.0064 1.0066 0.99327 0.98586 1.0168 1.0378 1.0674 1.0832 1.0979 1.0982 1.099 1.0966 1.0965 1.0861 1.1635 1.2255 1.3054 1.2624 1.2546 1.2364 1.1463 1.1456 1.1393 1.132 1.1209 1.0899 1.0885 1.0223 1.0147 1.0003 0.98881 0.98876 0.98858 0.95683 0.94292 0.94286 0.92554 0.87877 0.87578 0.84279 0.83115 0.78987 0.78731 0.77249 0.73592 0.71495 0.6934 0.69322 0.68631 0.68628 0.68261 0.68865 0.7257 0.73096 0.74065 0.73934 0.74115 0.74383 0.77351 0.7742 0.77445 0.83393 0.84016 0.84021 0.91464 0.93061 0.9314 0.95741 0.96508 0.9706 0.97032 0.96351 0.96268 0.95928 0.94971 0.94365 0.95052 0.95573 0.9569 0.93908 0.93395 0.87842 0.87606 0.86567 1.7198 1.7165 1.7394 1.7434 1.7604 1.7598 1.7605 1.7743 1.7654 1.7658 1.7647 1.7541 1.7238 1.6867 1.685 1.683 1.6715 1.6445 1.6352 1.6324 1.6287 1.6291 1.6298 1.6288 1.6244 1.624 1.6157 1.6157 1.6034 1.5928 1.585 1.5848 1.5712 1.5491 1.5013 1.4781 1.4638 1.4626 1.4497 1.45 1.4493 1.4437 1.4452 1.4277 1.4208 1.3861 1.386 1.3827 1.3808 1.3809 1.3621 1.3572 1.3473 1.3472 1.3303 1.3297 1.3297 1.3145 1.3124 1.3099 1.3186 1.3298 1.3323 
scalars Flowrate float
LOOKUP_TABLE default