# vtk DataFile Version 3.0
vtk output
ASCII
DATASET POLYDATA
POINTS 1598 float
8.4711 145.25 62.87
8.4867 145.16 63.084
8.6071 144.95 64.024
8.985 144.59 65.766
9.0022 144.58 65.856
9.0134 144.57 65.959
9.044 144.55 66.235
9.0732 144.56 66.435
9.2803 144.54 67.378
9.3148 144.53 67.645
9.3873 144.52 68.267
9.4238 144.46 68.74
9.5294 144.35 69.477
9.6084 144.28 69.793
9.8544 144.04 70.807
9.8775 144.03 70.935
10.019 143.93 71.683
10.112 143.85 72.06
10.154 143.8 72.275
10.179 143.77 72.344
10.405 143.61 72.919
10.437 143.58 73.033
10.538 143.51 73.394
10.656 143.42 73.868
10.688 143.37 74.04
10.719 143.33 74.207
10.98 143.09 75.362
11.144 142.94 76.146
11.207 142.94 76.313
11.234 142.92 76.39
11.297 142.89 76.654
11.397 142.86 77.072
11.462 142.82 77.467
11.652 142.77 78.201
11.75 142.72 78.607
11.898 142.64 79.245
11.934 142.62 79.41
11.929 142.6 79.678
11.94 142.59 80.096
11.975 142.56 80.494
11.995 142.52 80.852
12.05 142.45 81.583
12.075 142.39 82.097
12.271 142.19 83.56
12.28 142.16 83.761
12.277 142.15 83.823
12.275 142.14 83.856
12.261 142.1 84.008
12.248 142.06 84.114
12.234 142.02 84.22
12.354 141.9 85.406
12.384 141.84 85.857
12.456 141.67 86.824
12.469 141.64 86.971
12.475 141.61 87.256
12.476 141.6 87.43
12.571 141.54 87.963
12.596 141.48 88.274
12.613 141.44 88.495
12.622 141.43 88.594
12.622 141.43 88.595
12.69 141.26 89.502
12.693 141.26 89.53
12.818 141.19 90.195
12.845 141.01 91.421
12.819 140.85 91.99
12.785 140.73 92.438
12.737 140.63 93.01
12.689 140.66 94.103
12.698 140.76 94.618
12.697 141 95.506
12.695 141.06 95.669
12.649 141.05 95.882
12.609 141.01 96.231
12.586 140.96 96.317
12.526 140.89 96.639
12.465 140.95 97.538
12.297 140.95 99.138
12.274 140.96 99.362
12.261 140.96 99.579
12.191 140.93 100.29
12.138 140.88 100.8
12.133 140.83 101.04
12.099 140.78 101.59
12.095 140.78 101.63
12.059 140.75 101.84
12.046 140.74 101.91
11.966 140.64 102.53
11.93 140.62 102.91
11.902 140.62 103.35
11.86 140.65 104.01
11.853 140.65 104.09
11.778 140.69 104.66
11.777 140.69 104.68
11.777 140.69 104.68
11.768 140.69 104.87
11.783 140.69 105.11
11.835 140.72 105.52
11.856 140.73 105.64
11.968 140.68 106.06
11.982 140.66 106.2
12.14 140.66 106.96
12.186 140.67 107.15
12.272 140.69 107.52
12.463 140.72 108.49
12.484 140.73 108.59
12.519 140.73 108.79
12.568 140.74 109.04
12.719 140.84 109.52
12.766 140.87 109.69
12.972 140.87 109.99
13.373 140.9 110.53
13.605 140.88 110.97
14.258 140.84 112.25
14.632 140.83 112.95
14.71 140.82 113.15
15.081 140.81 114.1
15.086 140.81 114.12
15.518 140.87 115.14
15.696 140.81 115.49
15.742 140.77 115.59
15.914 140.66 115.98
15.961 140.63 116.08
16.043 140.61 116.23
16.096 140.59 116.33
16.096 140.59 116.33
16.195 140.55 116.54
16.659 140.52 117.47
16.892 140.5 117.94
17.196 140.52 118.5
17.465 140.56 119.02
17.65 140.55 119.36
17.667 140.55 119.39
17.697 140.56 119.45
18.008 140.62 120.13
18.534 140.68 121.04
18.548 140.68 121.07
18.843 140.61 121.64
18.99 140.6 121.99
18.878 143.744 124.198
18.8944 143.744 124.23
19.359 143.672 124.734
20.4345 143.538 125.838
20.6148 143.517 126.059
20.6189 143.517 126.059
20.6982 143.517 126.143
20.8054 143.517 126.259
20.8919 143.507 126.364
20.9743 143.527 126.49
21.0217 143.527 126.553
21.3864 143.527 126.963
21.476 143.527 127.089
21.8808 143.527 127.615
22.1755 143.538 127.983
22.2208 143.538 128.035
22.3042 143.538 128.151
22.3578 143.538 128.214
22.3578 143.538 128.214
22.4093 143.538 128.288
22.4093 143.538 128.288
22.6627 143.548 128.792
22.6689 143.538 128.803
22.7503 143.496 128.992
22.7719 143.486 129.034
22.7719 143.486 129.034
22.8533 143.445 129.192
23.0222 143.363 129.528
23.0418 143.352 129.57
23.6012 143.146 130.506
23.767 143.095 130.79
23.767 143.095 130.79
23.8948 143.033 131.063
23.9628 143.002 131.21
24.0081 142.981 131.294
24.0431 142.971 131.357
24.0524 142.971 131.378
24.0524 142.971 131.378
24.0678 142.971 131.41
24.1915 142.95 131.589
24.3656 142.94 131.841
24.5366 142.92 132.104
24.6705 142.899 132.345
24.7086 142.899 132.409
24.722 142.889 132.461
24.7941 142.858 132.745
24.9548 142.827 133.197
24.9795 142.817 133.26
25.0527 142.775 133.449
25.1402 142.744 133.639
25.1629 142.734 133.702
25.1763 142.734 133.744
25.2329 142.724 133.859
25.3535 142.703 134.091
25.3658 142.693 134.122
25.5121 142.672 134.501
25.7089 142.652 134.784
25.714 142.652 134.805
25.9262 142.621 135.163
26.0406 142.611 135.289
26.0416 142.611 135.289
26.226 142.6 135.573
26.26 142.6 135.604
26.327 142.6 135.71
26.4774 142.569 135.983
26.4835 142.569 135.993
26.6072 142.559 136.172
26.7771 142.559 136.487
26.8874 142.559 136.729
26.9337 142.569 136.845
26.9409 142.569 136.855
27.0625 142.549 137.181
27.1284 142.549 137.329
27.1439 142.549 137.36
27.25 142.549 137.57
27.3447 142.549 137.739
27.4611 142.559 137.938
27.4642 142.559 137.949
27.6198 142.559 138.516
27.6425 142.559 138.548
27.7084 142.58 139.032
27.7434 142.59 139.158
27.765 142.59 139.242
27.7929 142.6 139.379
27.8258 142.611 139.473
27.9865 142.641 139.841
28.003 142.631 139.883
28.0998 142.569 140.23
28.0967 142.497 140.493
28.141 142.487 140.63
28.2482 142.435 140.892
28.3213 142.415 141.018
28.4285 142.394 141.176
28.4326 142.394 141.197
28.4975 142.363 141.397
28.5521 142.322 141.576
28.7354 142.229 142.133
28.7797 142.209 142.27
28.9054 142.147 142.637
29.1825 142.065 143.426
29.2505 142.054 143.552
29.3195 142.044 143.678
29.4874 142.054 143.962
29.5142 142.054 144.015
29.6265 142.023 144.141
29.7749 141.962 144.341
29.8964 141.92 144.519
30.0757 141.828 144.814
30.2199 141.776 145.003
30.3476 141.714 145.35
30.4345 141.684 145.506
30.4449 141.684 145.527
30.7116 141.644 145.913
30.8564 141.614 146.143
31.0012 141.604 146.341
31.0994 141.594 146.498
31.118 141.594 146.518
31.1273 141.594 146.539
31.1459 141.584 146.571
31.2433 141.564 146.779
31.5344 141.432 147.531
31.6556 141.392 147.855
31.6763 141.382 147.897
31.8254 141.331 148.189
32.0002 141.291 148.492
32.0167 141.291 148.513
32.0602 141.291 148.575
32.1015 141.291 148.628
32.2578 141.292 148.972
32.321 141.282 149.139
32.3905 141.252 149.369
32.6823 141.14 149.912
32.7051 141.13 149.954
32.8904 141.069 150.329
32.9908 141.029 150.549
33.1316 140.988 150.841
33.1843 140.978 150.925
33.3136 140.958 151.133
33.4399 140.928 151.373
33.4968 140.918 151.488
33.502 140.908 151.499
33.5465 140.898 151.603
33.5506 140.898 151.624
33.5765 140.898 151.687
33.6864 140.889 151.979
33.7154 140.878 152.063
33.7206 140.879 152.073
33.7485 140.879 152.146
33.7651 140.879 152.178
33.8437 140.879 152.324
33.8437 140.879 152.324
33.9637 140.87 152.543
34.0403 140.87 152.668
34.1954 140.902 152.908
34.3599 140.944 153.274
34.6162 141.026 153.968
34.6965 141.046 154.147
34.9262 141.087 154.61
35.2866 141.18 155.283
35.4113 141.17 155.493
35.8141 141.211 156.071
35.9255 141.221 156.197
36.0831 141.242 156.386
36.2037 141.252 156.523
36.3026 141.263 156.638
36.418 141.294 156.775
36.4191 141.294 156.775
36.5767 141.335 156.996
36.6467 141.356 157.122
36.6478 141.356 157.122
36.6725 141.356 157.164
36.6735 141.356 157.164
37.0083 141.407 157.753
37.0412 141.417 157.827
37.1626 141.479 158.195
37.2542 141.499 158.395
37.4633 141.613 158.774
37.5352 141.695 158.89
37.6296 141.828 159.091
37.9809 142.27 159.683
38.023 142.321 159.735
38.098 142.424 159.831
38.2264 142.609 160.01
38.248 142.65 160.042
38.248 142.65 160.042
38.2757 142.691 160.084
38.2757 142.691 160.084
38.3803 142.917 160.275
38.4285 143.051 160.381
38.4295 143.061 160.381
38.4602 143.164 160.455
38.4612 143.164 160.455
38.5625 143.493 160.709
38.585 143.575 160.763
38.5861 143.575 160.763
38.6004 143.626 160.805
38.6004 143.626 160.805
38.6547 143.791 160.921
38.6557 143.791 160.932
38.7725 144.099 161.144
38.8042 144.223 161.218
38.8329 144.295 161.271
38.9531 144.49 161.43
38.987 144.541 161.462
38.987 144.541 161.472
38.9963 144.552 161.472
39.0517 144.654 161.546
39.06 144.665 161.557
39.0713 144.685 161.557
39.3363 145.21 161.79
39.3682 145.292 161.822
39.5242 145.734 161.971
39.5601 145.827 162.014
39.6072 145.971 162.067
39.6882 146.217 162.215
39.7077 146.248 162.237
39.8564 146.639 162.491
39.8707 146.67 162.512
39.8779 146.68 162.523
39.916 146.742 162.565
39.9159 146.742 162.576
40.1233 147.153 162.883
40.3062 147.43 163.094
40.4254 147.574 163.221
40.7236 147.913 163.56
40.8388 148.027 163.665
40.8768 148.068 163.697
40.9499 148.14 163.75
41.2503 148.407 163.982
41.3275 148.469 164.035
41.3306 148.469 164.035
41.3789 148.51 164.098
41.4417 148.561 164.162
41.5795 148.685 164.299
41.7471 148.829 164.478
41.8776 148.993 164.679
41.8982 149.013 164.7
42.0483 149.178 164.838
42.2221 149.342 165.017
42.2653 149.384 165.06
42.2664 149.384 165.06
42.4577 149.558 165.239
42.5071 149.589 165.281
42.6893 149.744 165.387
42.9601 149.949 165.482
43.4533 150.33 165.63
43.4574 150.33 165.64
43.5162 150.372 165.651
43.993 150.65 165.84
44.0125 150.67 165.851
44.0619 150.722 165.883
44.0743 150.732 165.893
44.2842 150.896 166.03
44.6269 151.226 166.231
44.8091 151.411 166.326
44.8111 151.411 166.326
44.9739 151.504 166.379
45.0387 151.545 166.411
45.0398 151.545 166.411
45.321 151.699 166.495
45.5126 151.843 166.516
45.5878 151.895 166.526
45.5888 151.895 166.526
45.6166 151.915 166.537
45.6166 151.915 166.537
45.6393 151.936 166.537
45.6393 151.936 166.537
45.7485 152.018 166.558
45.9431 152.194 166.579
45.9884 152.235 166.59
46.043 152.276 166.6
46.0842 152.317 166.611
46.1923 152.43 166.632
46.3364 152.595 166.674
46.4538 152.698 166.706
46.5598 152.811 166.727
46.6052 152.852 166.727
46.6474 152.894 166.738
46.6845 152.924 166.738
46.806 153.058 166.738
46.8688 153.13 166.749
46.8688 153.13 166.749
46.9512 153.213 166.759
47.0385 153.305 166.76
47.1986 153.5 166.762
47.3948 153.716 166.732
47.4451 153.778 166.722
47.6222 153.983 166.701
47.6459 154.004 166.701
47.7087 154.066 166.691
47.8158 154.2 166.68
47.8447 154.231 166.68
48.1682 154.663 166.68
48.1774 154.674 166.67
48.1774 154.674 166.67
48.2578 154.766 166.68
48.5102 155.075 166.701
48.5792 155.168 166.712
[...]
CELL_DATA 1597
scalars Radius float
LOOKUP_TABLE default
9.4449 9.4081 9.5032 9.5143 9.5195 9.5365 9.5369 9.5091 9.4949 9.4782 9.4699 9.445 9.4072 9.3353 9.3207 9.2613 9.2256 9.2043 9.1905 9.0676 9.0358 8.9426 8.8319 8.7942 8.7699 8.6125 8.5805 8.5861 8.5825 8.5436 8.4974 8.449 8.3443 8.308 8.2861 8.2863 8.2365 8.1651 8.086 8.0245 7.9303 7.8926 7.8246 7.8176 7.8128 7.8099 7.7952 7.782 7.7683 7.6777 7.672 7.7281 7.7439 7.752 7.7506 7.6779 7.6371 7.6129 7.6021 7.602 7.5532 7.5528 7.5327 7.4797 7.5026 7.5422 7.6001 7.7566 7.8554 8.0535 8.0993 8.159 8.2247 8.2345 8.2377 8.2396 8.4287 8.4765 8.519 8.6744 8.7952 8.8395 8.9031 8.9056 8.9298 8.938 9.0038 9.0448 9.0995 9.2029 9.2131 9.3067 9.3083 9.3083 9.3252 9.3263 9.2923 9.2822 9.1716 9.1392 8.8991 8.8415 8.7418 8.554 8.5396 8.5142 8.49 8.3995 8.3738 8.2104 7.917 7.6944 7.1517 6.9596 6.9061 6.6922 6.6899 6.6175 6.5608 6.5435 6.4949 6.4838 6.4639 6.452 6.452 6.4125 6.3284 6.3149 6.3346 6.3974 6.4633 6.4702 6.4813 6.6129 6.7773 6.7805 6.9048 6.9699 7.0393 7.0437 7.004 7.0884 7.0703 7.0691 7.065 7.0564 7.0475 7.0203 7.0018 6.8885 6.8603 6.7722 6.7298 6.7261 6.7192 6.7144 6.7144 6.7107 6.7107 6.6783 6.6725 6.5999 6.5836 6.5835 6.5169 6.3882 6.3756 6.0948 6.0379 6.0377 5.9932 5.9745 5.964 5.9559 5.9538 5.9538 5.9483 5.9124 5.8672 5.8352 5.8139 5.8094 5.8043 5.7711 5.7377 5.7257 5.6956 5.6637 5.6541 5.6486 5.6287 5.5902 5.5856 5.5349 5.5064 5.5048 5.4714 5.4661 5.466 5.4591 5.4594 5.4581 5.4519 5.4518 5.4512 5.4494 5.4502 5.4528 5.4523 5.4476 5.4521 5.4535 5.4626 5.4803 5.5015 5.5017 5.5391 5.546 5.5648 5.5753 5.5845 5.5988 5.6087 5.6553 5.6555 5.6396 5.6282 5.6186 5.583 5.5685 5.547 5.5448 5.5094 5.4776 5.3817 5.3627 5.3245 5.31 5.3087 5.3125 5.3124 5.3079 5.2761 5.2258 5.1945 5.1519 5.106 5.0474 5.0149 5.0112 4.9339 4.9046 4.874 4.8571 4.8533 4.8517 4.8454 4.8162 4.7574 4.7647 4.764 4.7674 4.7665 4.7667 4.7661 4.7653 4.7475 4.7431 4.7046 4.6475 4.6453 4.6353 4.6371 4.6436 4.6465 4.6497 4.6473 4.6439 4.6432 4.6373 4.6365 4.6318 4.6152 4.6134 4.6131 4.6112 4.6098 4.6011 4.601 4.5911 4.5882 4.5625 4.4914 4.4118 4.403 4.3991 4.4515 4.4547 4.4622 4.4641 4.474 4.4805 4.4858 4.4909 4.4909 4.4936 4.4861 4.486 4.4828 4.4827 4.4656 4.4623 4.4438 4.4502 4.3949 4.3421 4.2807 4.1178 4.1008 4.0554 3.9732 3.9548 3.9545 3.9318 3.9317 3.8291 3.7721 3.7707 3.7321 3.7307 3.6319 3.6122 3.6121 3.6006 3.6002 3.563 3.5625 3.5113 3.4972 3.4833 3.4152 3.3974 3.3973 3.3928 3.3599 3.3532 3.3444 3.1407 3.1171 3.0212 3.0066 2.984 2.9231 2.9128 2.819 2.8128 2.809 2.79 2.7898 2.7073 2.6891 2.6849 2.6826 2.6808 2.682 2.6833 2.7008 2.7099 2.71 2.7097 2.7129 2.7147 2.7321 2.7728 2.7765 2.7765 2.7793 2.7786 2.7786 2.7793 2.7787 2.7625 2.7271 2.7166 2.7169 2.7178 2.7682 2.7683 2.768 2.7681 2.7772 2.8266 2.868 2.8681 2.8701 2.8658 2.8657 2.8319 2.7979 2.7885 2.7884 2.7853 2.7852 2.7824 2.7824 2.7701 2.75 2.7448 2.7377 2.7311 2.7116 2.69 2.6781 2.668 2.6642 2.6601 2.6557 2.6396 2.6332 2.6332 2.6281 2.6224 2.6154 2.5988 2.594 2.5834 2.5827 2.5815 2.5754 2.5736 2.5207 2.5202 2.5202 2.5131 2.5099 2.5022 2.4958 2.4899 2.4979 2.5104 2.5123 2.519 2.5181 2.4863 2.4857 2.4819 2.4619 2.4217 2.4129 2.4105 2.4018 2.3952 2.348 2.3094 2.3081 2.2968 2.2649 2.2394 2.1986 2.1262 2.0588 2.0459 2.0404 2.0402 2.0009 2.0005 1.9893 1.988 1.9591 1.9466 1.9425 1.9352 1.9215 1.9014 1.8755 1.8685 1.8641 1.864 1.8482 1.8101 1.7753 1.7743 1.7578 1.755 1.7397 1.7342 1.7344 1.7309 1.7415 1.7415 1.7138 1.7134 1.7157 1.7154 1.7263 1.7323 1.7354 1.7381 1.764 1.8098 1.8162 1.8245 1.8386 1.847 1.8606 1.9048 1.9269 1.9723 1.9857 1.9858 2.1092 2.1586 2.2715 2.2926 2.3029 2.3172 2.3286 2.311 2.3104 2.2932 2.2662 2.2567 2.2434 2.2278 2.2204 2.2094 2.2061 2.2029 2.2029 2.2048 2.2062 2.2082 2.2079 2.2287 2.2297 2.2323 2.2466 2.2484 2.2519 2.2628 2.2887 2.2855 2.2809 2.2795 2.2795 2.2462 2.246 2.2314 2.2314 2.213 2.2127 2.2196 2.2202 2.2327 2.2605 2.2695 2.2696 2.2716 2.2654 2.2609 2.2603 2.2523 2.2137 2.2111 2.2072 2.1906 2.1876 2.1826 2.1823 2.1629 2.1602 2.1376 2.1364 2.1006 2.1 2.0707 2.0705 2.0515 2.0466 2.041 2.0357 2.0269 2.0205 2.0205 2.0128 1.9973 1.9948 1.9893 1.9803 1.9719 1.9671 1.9635 1.9613 1.9421 1.9407 1.9408 1.9409 1.9393 1.9495 1.9501 1.9501 1.9581 1.9597 1.9949 2.0155 2.0122 2.0087 2.0049 1.995 1.9912 2.0041 2.0074 2.0076 1.9999 1.9893 1.9852 1.9793 1.9736 1.9703 1.969 1.9415 1.9399 1.9442 1.9618 2.004 2.0077 2.0097 2.0146 2.0092 2.0092 1.9889 1.9877 1.9757 1.9608 1.9606 1.9558 1.9554 1.9502 1.9502 1.9435 1.9188 1.9189 1.9146 1.9005 1.9004 1.8992 1.8992 1.8722 1.859 1.859 1.859 1.8637 1.8619 1.8512 1.8289 1.8283 1.8267 1.8259 1.8361 1.8371 1.8309 1.8169 1.7936 1.7878 1.7602 1.7474 1.7367 1.722 1.7164 1.7047 1.6654 1.6608 1.6033 1.5688 1.5683 1.5512 1.551 1.5159 1.5157 1.4983 1.4874 1.3762 1.3758 1.3532 1.3387 1.3235 1.2634 1.2488 1.2078 1.2059 1.1853 1.1789 1.1595 1.13 1.1151 1.0608 1.0447 1.0443 1.0293 0.91021 0.90995 0.86792 0.88404 0.98054 0.98563 1.046 1.0775 1.0787 1.092 1.1048 1.1049 1.1298 1.1304 1.1497 1.1652 1.1757 1.1706 1.1796 1.1812 1.1827 1.2142 1.2134 1.2114 1.2089 1.1598 1.135 1.1339 1.1381 1.1425 1.1429 1.1487 1.1495 1.1503 1.1442 1.1436 1.1405 1.1413 1.1915 1.1936 1.246 1.2552 1.2553 1.2674 1.2738 1.2758 1.2927 1.3346 1.3516 1.3503 1.3335 1.2933 1.2589 1.2449 1.234 1.1979 1.1951 1.1796 1.1836 1.183 1.1723 1.1612 1.1386 1.1307 1.1282 1.1235 1.0897 1.0516 1.0489 1.0498 1.0418 1.0401 1.0385 1.0439 1.1257 1.1458 1.1545 1.1719 1.1736 1.1736 1.1738 1.1616 1.1775 1.1795 1.1814 1.1975 1.1982 1.2284 1.25 1.2778 1.2826 1.2822 1.2804 1.279 1.266 1.2599 1.2517 1.2456 1.231 1.2388 1.2145 1.2083 1.2045 1.2696 1.3217 1.3166 1.3022 7.09 7.0918 7.0912 7.0787 7.0073 6.9863 6.9862 6.9437 6.9311 6.9309 6.9066 6.881 6.8362 6.7842 6.7805 6.7804 6.7243 6.6653 6.633 6.6329 6.6 6.5834 6.5429 6.4562 6.4312 6.3802 6.38 6.3375 6.3269 6.3268 6.2234 6.1201 6.1165 6.1164 6.079 6.0225 6.0094 5.9667 5.9623 5.929 5.8828 5.8542 5.8266 5.7726 5.7724 5.7593 5.7585 5.708 5.6953 5.6701 5.67 5.5861 5.4907 5.2562 5.0648 5.0403 5.0073 4.9906 4.9628 4.9181 4.7667 4.7642 4.6475 4.5995 4.4768 4.4679 4.3892 4.386 4.3468 4.2857 4.2744 4.2333 4.2033 4.2002 4.1491 4.128 4.1101 4.0681 4.0626 4.0407 3.9767 3.9753 3.929 3.7657 3.7196 3.7148 3.7105 3.7104 3.7066 3.7065 3.6301 3.617 3.5841 3.5783 3.5782 3.572 3.566 3.5631 3.5617 3.5406 3.5256 3.5222 3.49 3.4885 3.4626 3.447 3.4206 3.4085 3.2199 3.1623 3.1454 3.1643 3.15 3.1516 3.1517 3.1526 3.1526 3.1186 3.1327 3.2751 3.3247 3.2987 3.2828 3.2824 3.277 3.2292 3.1432 3.1096 3.0461 3.0455 2.8939 2.8165 2.6988 2.6036 2.451 2.4106 2.3965 2.3606 2.3567 2.2387 2.2198 2.2187 2.2018 2.1785 2.1639 2.1476 2.1147 2.0865 2.0444 2.0094 2.0046 1.9788 1.9193 1.8862 1.8673 1.8513 1.772 1.7711 1.716 1.6803 1.6756 1.64 1.64 1.6383 1.6349 1.6449 1.6551 1.6922 1.7492 1.7638 1.8 1.8457 1.8893 1.905 1.9981 2.0245 2.0261 2.0353 2.0333 2.0259 2.0258 2.0245 2.0244 2.0049 1.9896 1.9896 1.9642 1.963 1.961 1.9458 1.8569 1.8566 1.8407 1.8405 1.8214 1.8212 1.8026 1.8024 1.7974 1.806 1.8439 1.8991 1.9787 1.9943 1.9969 2.035 2.0619 2.0803 2.0785 2.058 2.053 2.0446 2.0544 2.0542 2.0522 2.0092 1.9823 1.977 1.9556 1.9431 1.9415 1.9326 1.9307 1.9307 1.9166 1.884 1.8782 1.8767 1.8697 1.8463 1.8288 1.8275 1.8274 1.826 1.826 1.8445 1.834 1.7986 1.761 1.7338 1.6771 1.6737 1.6645 1.6542 1.6438 1.6331 1.6298 1.625 1.6145 1.6141 1.6129 1.598 1.5946 1.5946 1.6036 1.6608 1.689 1.7057 1.7107 1.7161 1.7303 1.7373 1.7875 1.7951 1.7952 1.7959 1.7836 1.7797 1.7505 1.7508 1.7515 1.7516 1.753 1.7626 1.7747 1.7755 1.7646 1.745 1.7315 1.7467 1.748 1.7819 1.8114 1.8093 1.7905 1.7552 1.7422 1.6437 1.5873 1.5818 1.5282 1.5249 1.5247 1.502 1.4827 1.4148 1.4129 1.3954 1.3178 1.2935 1.2881 1.2569 1.2546 1.2346 1.2333 1.2245 1.1673 1.1636 1.1494 1.1494 1.134 1.134 1.12 1.1033 1.1073 1.1104 1.1104 1.1141 1.1141 1.1353 1.1377 1.1616 1.1643 1.1665 1.1627 1.1542 1.1493 1.1462 1.1466 1.1464 1.1362 1.1425 1.1435 1.1431 1.1405 1.122 1.1335 1.1346 1.1575 1.1577 1.1579 1.1547 1.1527 1.152 1.1483 1.143 1.1222 1.1043 1.0959 1.0813 1.0631 1.0373 1.036 1.0185 1.0159 1.0293 1.0421 1.1149 1.1194 1.1165 1.1225 1.1226 1.1029 1.0363 1.0162 0.98284 0.98174 0.90273 0.90177 0.89715 0.86257 0.84643 0.82724 0.80015 0.79967 0.79021 0.82418 0.82631 0.82722 0.81103 0.79533 0.77464 0.77543 0.77392 0.78021 0.79564 0.80433 0.80628 0.8067 0.83095 0.87336 0.87622 0.89301 0.89661 0.89828 0.89961 0.89964 0.90913 0.90925 0.95893 0.97772 0.99914 1.0058 1.0327 1.0558 1.0791 1.1113 1.1167 1.1169 1.0852 1.0363 1.0222 1.022 0.97349 0.97329 0.92641 0.92157 0.87371 0.87146 0.83011 0.81837 0.77052 0.73055 0.70141 0.69205 0.67799 0.66129 4.4996 4.4648 4.4624 4.4488 4.3106 4.295 4.2871 4.2047 4.1569 4.1212 4.0539 4.0243 4.0219 3.9498 3.952 3.9536 3.9555 3.9905 3.9652 3.9605 3.9191 3.8706 3.8308 3.7982 3.7418 3.6828 3.6757 3.6512 3.5932 3.5773 3.4923 3.4232 3.3994 3.373 3.3183 3.3181 3.3134 3.2951 3.2906 3.1752 3.1557 3.1556 3.079 3.0781 3.0206 3.0203 2.9641 2.9635 2.9407 2.8499 2.837 2.7202 2.5817 2.5778 2.338 2.3339 2.1747 2.1259 2.0628 2.0295 1.9814 1.9806 1.9179 1.9174 1.8863 1.8635 1.8082 1.7997 1.7454 1.7421 1.7152 1.6664 1.655 1.6249 1.5762 1.5641 1.5256 1.5008 1.4929 1.4975 1.5134 1.563 1.5711 1.6274 1.6392 1.865 1.9328 1.9526 1.9713 1.9712 1.971 1.9416 1.8425 1.8087 1.7796 1.7283 1.5965 1.5277 1.5264 1.4958 1.4761 1.4493 1.424 1.4184 1.4219 1.4257 1.4279 1.4304 1.4417 1.478 1.5468 1.6366 1.6476 1.7046 1.7092 1.7153 1.7164 1.716 1.7107 1.7202 1.7341 1.7499 1.7763 1.7798 1.7784 1.8034 1.807 1.8088 1.8024 1.7738 1.7721 1.7661 1.6959 1.6858 1.6028 1.5997 1.5324 1.5282 1.5214 1.4961 1.5039 1.5179 1.5228 1.5301 1.5424 1.6275 1.6622 1.7687 1.7793 1.8072 1.7935 1.7497 1.7416 1.6656 1.582 1.5227 1.447 1.4211 1.4235 1.452 1.4518 1.4509 1.4436 1.4238 1.4112 1.4341 1.4383 1.4733 1.4735 1.478 1.4781 1.4521 1.4444 1.4329 1.4083 1.3776 1.3857 1.3923 1.3923 1.3921 1.3921 1.3909 1.3909 1.3887 1.3887 1.3867 1.3753 1.3713 1.3628 1.3585 1.3589 1.3587 1.3544 1.3625 1.3627 1.3621 1.3662 1.3699 1.3473 1.3041 1.2969 1.2215 1.1599 1.1582 1.1641 1.1459 1.1324 1.1311 1.0996 1.0919 1.0889 1.0832 1.0607 1.0317 1.0315 1.0278 1.0179 1.0064 1.0066 0.99327 0.98586 1.0168 1.0378 1.0674 1.0832 1.0979 1.0982 1.099 1.0966 1.0965 1.0861 1.1635 1.2255 1.3054 1.2624 1.2546 1.2364 1.1463 1.1456 1.1393 1.132 1.1209 1.0899 1.0885 1.0223 1.0147 1.0003 0.98881 0.98876 0.98858 0.95683 0.94292 0.94286 0.92554 0.87877 0.87578 0.84279 0.83115 0.78987 0.78731 0.77249 0.73592 0.71495 0.6934 0.69322 0.68631 0.68628 0.68261 0.68865 0.7257 0.73096 0.74065 0.73934 0.74115 0.74383 0.77351 0.7742 0.77445 0.83393 0.84016 0.84021 0.91464 0.93061 0.9314 0.95741 0.96508 0.9706 0.97032 0.96351 0.96268 0.95928 0.94971 0.94365 0.95052 0.95573 0.9569 0.93908 0.93395 0.87842 0.87606 0.86567 1.7198 1.7165 1.7394 1.7434 1.7604 1.7598 1.7605 1.7743 1.7654 1.7658 1.7647 1.7541 1.7238 1.6867 1.685 1.683 1.6715 1.6445 1.6352 1.6324 1.6287 1.6291 1.6298 1.6288 1.6244 1.624 1.6157 1.6157 1.6034 1.5928 1.585 1.5848 1.5712 1.5491 1.5013 1.4781 1.4638 1.4626 1.4497 1.45 1.4493 1.4437 1.4452 1.4277 1.4208 1.3861 1.386 1.3827 1.3808 1.3809 1.3621 1.3572 1.3473 1.3472 1.3303 1.3297 1.3297 1.3145 1.3124 1.3099 1.3186 1.3298 1.3323 
scalars Flowrate float
LOOKUP_TABLE default