# vtk DataFile Version 3.0
vtk output
ASCII
DATASET POLYDATA
POINTS 13697 float
11.976 -156.85 4.3248
11.842 -156.75 3.9743
11.613 -156.59 3.3825
11.358 -156.41 2.6745
11.318 -156.39 2.5645
11.167 -156.28 2.1112
11.05 -156.14 1.7106
10.783 -155.78 0.72281
10.752 -155.72 0.53084
10.722 -155.65 0.32553
10.626 -155.45 -0.37962
10.582 -155.29 -0.85717
10.477 -155.11 -1.6463
10.374 -155.01 -2.1118
10.353 -154.99 -2.1807
10.151 -154.74 -2.9309
9.9887 -154.67 -3.4009
9.8938 -154.62 -3.6945
9.8662 -154.62 -3.8183
9.7518 -154.57 -4.2138
9.6919 -154.55 -4.4137
9.5578 -154.52 -4.9287
9.4933 -154.51 -5.1962
9.4434 -154.49 -5.4341
9.2957 -154.5 -5.9649
9.243 -154.5 -6.1321
8.9772 -154.49 -6.99
8.5651 -154.46 -8.3465
8.5279 -154.46 -8.4681
8.4796 -154.19 -9.3551
8.475 -154.17 -9.3841
8.3443 -153.9 -9.8221
8.3016 -153.81 -9.9774
8.2725 -153.76 -10.083
8.2161 -153.68 -10.23
8.14 -153.58 -10.436
8.0713 -153.46 -10.652
8.0429 -153.41 -10.746
8.0427 -153.41 -10.746
7.9939 -153.3 -10.934
7.9852 -153.29 -10.97
7.985 -153.29 -10.971
7.9729 -153.26 -11.023
7.9608 -153.19 -11.143
7.9132 -153.11 -11.292
7.7099 -152.76 -11.987
7.6839 -152.72 -12.072
7.6557 -152.61 -12.317
7.5944 -152.47 -12.632
7.5397 -152.4 -12.816
7.4351 -152.28 -13.158
7.4394 -151.98 -13.8
7.4404 -151.95 -13.86
7.4411 -151.9 -13.972
7.4392 -151.65 -14.491
7.4419 -151.56 -14.69
7.4241 -151.55 -14.725
7.1968 -151.41 -15.28
7.1752 -151.39 -15.343
6.7269 -150.7 -17.239
6.5581 -150.52 -17.763
6.3961 -150.34 -18.231
6.1762 -149.95 -18.918
6.1759 -149.95 -18.918
6.1528 -149.92 -19.02
5.9742 -149.69 -19.786
5.8641 -149.48 -20.313
5.7092 -149.16 -21.121
5.6315 -148.78 -21.779
5.609 -148.64 -22.3
5.5873 -148.62 -22.447
5.4486 -148.46 -23.256
5.4293 -148.43 -23.389
5.3679 -148.37 -23.719
5.3612 -148.31 -23.918
5.3598 -148.3 -23.979
5.2954 -147.9 -25.469
5.2972 -147.9 -25.492
5.3119 -147.85 -25.702
5.3127 -147.85 -25.707
5.354 -147.64 -26.242
5.3537 -147.64 -26.248
5.3537 -147.64 -26.248
5.351 -147.63 -26.28
5.351 -147.63 -26.28
5.3342 -147.53 -26.532
5.3269 -147.47 -26.693
5.2947 -147.26 -27.236
5.2664 -147.04 -27.902
5.2578 -146.99 -28.105
5.2358 -146.95 -28.343
5.2322 -146.93 -28.4
5.2228 -146.89 -28.621
5.2112 -146.82 -28.983
5.2383 -146.77 -29.364
5.2405 -146.77 -29.414
5.2599 -146.73 -29.734
5.4858 -146.41 -30.654
5.6292 -146.19 -31.326
5.6605 -146.14 -31.486
5.6875 -146.09 -31.642
5.9964 -145.83 -32.325
6.3346 -145.51 -32.753
6.3646 -145.47 -32.834
6.4547 -145.36 -33.053
6.5794 -145.14 -33.601
6.6943 -144.89 -34.357
6.7916 -144.74 -34.939
6.8887 -144.61 -35.478
6.9467 -144.54 -35.653
7.0408 -144.44 -35.967
7.044 -144.44 -35.977
7.1067 -144.37 -36.183
7.1548 -144.31 -36.397
7.1553 -144.31 -36.4
7.2341 -144.17 -36.982
7.242 -144.15 -37.079
7.2474 -144.15 -37.106
7.3237 -144.12 -37.429
7.4825 -143.98 -37.945
7.5338 -143.94 -38.17
7.5519 -143.92 -38.273
7.6218 -143.83 -38.703
7.6238 -143.83 -38.711
7.6549 -143.79 -38.841
7.7599 -143.73 -39.105
8.0661 -143.66 -40.183
8.2974 -143.54 -40.827
8.3183 -143.53 -40.893
8.4585 -143.48 -41.323
8.4653 -143.48 -41.342
8.4689 -143.48 -41.35
8.6292 -143.43 -41.709
8.6772 -143.43 -42.01
8.8321 -143.25 -42.813
8.8748 -143.18 -43.004
8.8868 -143.17 -43.063
8.9534 -143.1 -43.436
9.0109 -142.99 -44.166
9.0382 -142.97 -44.548
9.1326 -142.9 -45.373
9.134 -142.9 -45.387
9.134 -142.9 -45.387
9.1296 -142.8 -46.081
9.129 -142.8 -46.114
9.129 -142.8 -46.115
9.1426 -142.8 -46.446
9.1821 -142.78 -47.346
9.1878 -142.76 -47.53
9.2087 -142.74 -48.003
9.2271 -142.7 -48.348
8.9173 -142.4 -49.356
8.9135 -142.39 -49.363
8.859 -142.36 -49.495
8.6312 -142.2 -50.229
8.3998 -142.03 -50.615
7.87 -141.69 -51.432
7.556 -141.56 -51.741
7.5162 -141.53 -51.776
7.4544 -141.49 -51.818
7.4537 -141.49 -51.819
7.1416 -141.3 -52.034
6.9719 -141.18 -52.173
6.94 -141.16 -52.203
6.9399 -141.16 -52.203
6.7938 -141.05 -52.336
6.7029 -140.99 -52.409
6.7025 -140.99 -52.409
6.5362 -140.87 -52.542
6.3211 -140.69 -52.775
5.8745 -140.26 -53.329
5.4047 -139.84 -53.905
5.226 -139.69 -54.121
5.1521 -139.64 -54.213
5.0766 -139.59 -54.297
4.8067 -139.47 -54.544
4.7673 -139.46 -54.58
4.7671 -139.46 -54.58
4.4822 -139.39 -54.829
4.3506 -139.36 -54.943
4.1513 -139.32 -55.117
4.1085 -139.32 -55.155
4.1083 -139.32 -55.155
3.965 -139.3 -55.28
3.9064 -139.29 -55.331
3.9059 -139.29 -55.332
3.7273 -139.27 -55.488
3.5919 -139.26 -55.606
3.4849 -139.25 -55.693
3.484 -139.25 -55.694
3.4132 -139.25 -55.752
3.2365 -139.24 -55.907
2.906 -139.22 -56.259
2.7943 -139.21 -56.378
2.4697 -139.2 -56.754
2.259 -139.22 -56.998
2.2128 -139.22 -57.048
1.8016 -139.25 -57.735
1.778 -139.25 -57.782
1.3455 -139.24 -58.342
0.82097 -139.25 -58.942
0.73483 -139.25 -59.014
0.52588 -139.24 -59.081
0.44844 -139.22 -59.157
-0.0019138 -139.14 -59.447
-0.58222 -139.07 -60.063
-1.3092 -138.97 -60.812
-1.5064 -138.95 -61.084
-1.9436 -138.9 -61.592
-1.9622 -138.9 -61.612
-2.1314 -138.86 -61.824
-2.3334 -138.87 -62.096
-2.3568 -138.87 -62.126
-2.5423 -138.88 -62.385
-2.5715 -138.89 -62.42
-2.7015 -138.9 -62.579
-2.8477 -138.93 -62.774
-2.8537 -138.93 -62.782
-3.0644 -138.99 -63.061
-3.2766 -139.04 -63.465
-3.2844 -139.04 -63.477
-3.5421 -139.07 -63.881
-3.8226 -139.04 -64.349
-3.8718 -139.04 -64.434
-3.9648 -139.05 -64.613
-4.1334 -139.05 -65.02
-4.2131 -139.04 -65.355
-4.3679 -139.04 -66.061
-4.4051 -139.04 -66.183
-4.4345 -139.04 -66.253
-4.5744 -139.03 -66.539
-4.5752 -139.03 -66.541
-4.6401 -139.03 -66.677
-4.6541 -139.03 -66.704
-4.6543 -139.03 -66.704
-4.9171 -139.06 -67.197
-4.9802 -139.06 -67.333
-5.0525 -139.08 -67.489
-5.9248 -139.21 -68.721
-6.1617 -139.25 -69.009
-6.3486 -139.26 -69.232
-6.4417 -139.25 -69.338
-6.5722 -139.24 -69.489
-6.6838 -139.22 -69.617
-6.8738 -139.19 -69.821
-6.9263 -139.18 -69.876
-7.2503 -139.14 -70.208
-7.3415 -139.14 -70.282
-7.627 -139.09 -70.573
-7.6561 -139.07 -70.595
-7.738 -139.03 -70.661
-7.9739 -138.93 -70.824
-8.0633 -138.89 -70.885
-8.2999 -138.78 -71.083
-8.3739 -138.74 -71.148
-8.6567 -138.62 -71.377
-8.8525 -138.53 -71.559
-8.9766 -138.44 -71.73
-9.259 -138.31 -72.008
-9.2622 -138.31 -72.012
-9.4462 -138.21 -72.218
-9.4685 -138.2 -72.246
-9.4992 -138.18 -72.286
-9.6201 -138.12 -72.444
-9.6206 -138.12 -72.444
-9.8379 -138.02 -72.724
-9.9178 -137.99 -72.825
-9.9185 -137.99 -72.826
-9.9823 -137.96 -72.91
-9.9833 -137.96 -72.912
-10.004 -137.95 -72.938
-10.004 -137.95 -72.938
-10.211 -137.87 -73.2
-10.231 -137.86 -73.225
-10.231 -137.86 -73.225
-10.425 -137.79 -73.447
-10.509 -137.76 -73.542
-10.51 -137.76 -73.543
-10.543 -137.75 -73.577
-10.755 -137.68 -73.742
-10.761 -137.68 -73.747
-11.11 -137.59 -74.02
-11.559 -137.49 -74.344
-11.69 -137.46 -74.411
-11.702 -137.45 -74.417
-11.795 -137.43 -74.462
-11.796 -137.43 -74.463
-12.051 -137.37 -74.583
-12.225 -137.35 -74.662
-12.261 -137.35 -74.678
-12.379 -137.34 -74.725
-12.554 -137.31 -74.864
-12.934 -137.25 -75.166
-13.01 -137.25 -75.205
-13.23 -137.2 -75.441
-13.308 -137.19 -75.51
-13.42 -137.16 -75.608
-13.462 -137.15 -75.645
-13.506 -137.14 -75.687
-13.744 -137.08 -75.922
-13.789 -137.07 -75.968
-14.061 -137.01 -76.253
-14.345 -137.03 -76.545
-14.351 -137.03 -76.551
-14.615 -137.05 -76.878
-14.739 -137.06 -77.051
-15.001 -137.07 -77.399
-15.403 -137.09 -77.797
-15.798 -137.07 -78.084
-15.804 -137.07 -78.089
-15.804 -137.07 -78.089
-15.982 -137.05 -78.284
-16.091 -137.05 -78.371
-16.209 -137.05 -78.434
-16.265 -137.04 -78.5
-16.266 -137.04 -78.501
-16.505 -136.96 -78.898
-16.755 -136.89 -79.205
-16.844 -136.84 -79.391
-16.871 -136.82 -79.479
-17.017 -136.76 -79.746
-17.045 -136.75 -79.8
-17.059 -136.75 -79.825
-17.289 -136.69 -80.214
-17.385 -136.67 -80.333
-17.392 -136.67 -80.341
-17.65 -136.65 -80.653
-17.717 -136.65 -80.744
-17.717 -136.65 -80.745
-17.81 -136.63 -80.998
-17.812 -136.63 -81.005
-17.902 -136.61 -81.274
-17.918 -136.61 -81.332
-17.918 -136.61 -81.332
-17.96 -136.61 -81.465
-17.981 -136.61 -81.54
-17.987 -136.61 -81.561
-17.998 -136.61 -81.591
-18.043 -136.6 -81.714
-18.107 -136.6 -81.908
-18.239 -136.62 -82.283
-18.256 -136.62 -82.322
-18.256 -136.62 -82.322
-18.341 -136.64 -82.488
-18.427 -136.67 -82.647
-18.561 -136.69 -82.877
-18.684 -136.73 -83.094
-18.85 -136.78 -83.348
-18.901 -136.81 -83.459
-18.952 -136.84 -83.55
-18.953 -136.84 -83.553
-19.051 -136.9 -83.732
-19.337 -137.04 -84.549
-19.42 -137.06 -85.172
-19.379 -137.08 -85.411
-19.372 -137.14 -86.071
-19.373 -137.15 -86.194
-19.373 -137.16 -86.308
-19.373 -137.16 -86.309
-19.319 -137.05 -87.131
-19.319 -137.05 -87.242
-19.319 -137.05 -87.244
-19.531 -137.05 -87.872
-19.532 -137.05 -87.878
-19.532 -137.05 -87.878
-19.541 -137.05 -87.959
-19.54 -137.04 -88.003
-19.541 -137.04 -88.067
-19.55 -137.03 -88.233
-19.567 -137.03 -88.363
-19.561 -137.03 -88.396
-19.561 -137.03 -88.399
-19.55 -137.03 -88.493
-19.54 -137.03 -88.551
-19.538 -137.03 -88.567
-19.563 -137.05 -88.818
-19.527 -137 -89.148
-19.527 -137 -89.149
-19.517 -136.99 -89.241
-19.517 -136.99 -89.242
-19.534 -136.95 -89.769
-19.535 -136.94 -90.065
-19.536 -136.94 -90.078
-19.541 -136.91 -90.279
-19.545 -136.9 -90.35
-19.589 -136.88 -90.614
-19.634 -136.84 -90.879
-19.637 -136.82 -90.994
-19.643 -136.79 -91.206
-19.666 -136.77 -91.559
-19.722 -136.75 -91.963
-19.747 -136.74 -92.084
-19.789 -136.72 -92.416
-19.82 -136.7 -92.598
-19.82 -136.7 -92.598
-19.914 -136.65 -92.938
-19.923 -136.65 -92.964
-19.975 -136.63 -93.051
-19.991 -136.63 -93.081
-20.12 -136.59 -93.325
-20.137 -136.59 -93.358
-20.179 -136.59 -93.441
-20.268 -136.57 -93.664
-20.33 -136.5 -94.067
-20.415 -136.35 -94.759
-20.456 -136.33 -94.878
-20.53 -136.32 -95.11
-20.716 -136.27 -95.582
-20.726 -136.27 -95.604
-20.843 -136.22 -95.858
-20.999 -136.14 -96.195
-21.206 -136.02 -96.796
-21.213 -136.01 -96.822
-21.25 -135.92 -97.125
-21.263 -135.92 -97.271
-21.312 -135.93 -97.415
-21.335 -135.93 -97.502
-21.404 -135.97 -97.834
-21.415 -135.98 -97.903
-21.55 -136.06 -98.434
-21.64 -136.12 -98.669
-21.827 -136.19 -98.962
-21.856 -136.2 -99.023
-21.974 -136.22 -99.282
-22.034 -136.23 -99.376
-22.052 -136.23 -99.411
-22.062 -136.23 -99.446
[...]
CELL_DATA 13696
scalars Radius float
LOOKUP_TABLE default
8.7995 8.8061 8.8547 8.8649 8.9003 8.8994 8.892 8.884 8.8778 8.8858 8.8937 8.9033 8.9052 8.9041 8.8755 8.8018 8.764 8.7425 8.6979 8.681 8.6362 8.6207 8.6085 8.5556 8.5438 8.5243 8.6522 8.6717 8.6803 8.6725 8.5697 8.532 8.5071 8.475 8.4335 8.3892 8.3705 8.3704 8.335 8.328 8.3278 8.3173 8.2911 8.2587 8.1388 8.1269 8.0816 8.034 8.0136 7.9802 7.9272 7.9234 7.9199 7.9075 7.9113 7.9098 7.8559 7.8491 7.8924 7.9976 8.0972 8.2225 8.2226 8.1938 8.0354 7.9259 7.8658 7.8802 7.8226 7.8146 7.7837 7.7796 7.7674 7.7493 7.745 7.7674 7.7675 7.7695 7.7694 7.7218 7.7206 7.7206 7.7141 7.714 7.6674 7.6425 7.5799 7.5413 7.5318 7.5173 7.5145 7.5054 7.4948 7.4594 7.4555 7.4301 7.3501 7.3557 7.3643 7.375 7.3133 7.2923 7.277 7.2378 7.112 6.9939 6.9362 6.916 6.9138 6.9193 6.9196 6.9275 6.9336 6.9337 6.9505 6.9549 6.9514 6.9143 6.8821 6.8737 6.8672 6.851 6.8511 6.8538 6.8209 6.7699 6.8102 6.8133 6.8729 6.8755 6.8765 6.9227 6.896 6.9162 6.9299 6.9349 6.968 7.0166 7.0546 7.1596 7.1618 7.1618 7.2223 7.2252 7.2252 7.2436 7.3303 7.3534 7.4243 7.4806 7.3968 7.3956 7.3818 7.3725 7.3239 7.291 7.2249 7.21 7.1847 7.1844 7.0677 7.0063 6.9946 6.9945 6.9419 6.9105 6.9104 6.8563 6.7764 6.6613 6.6451 6.6395 6.6406 6.6398 6.5904 6.5808 6.5808 6.5217 6.4974 6.4656 6.4593 6.4592 6.4394 6.4325 6.4324 6.4141 6.4028 6.3957 6.3957 6.3917 6.3797 6.3576 6.3528 6.3574 6.363 6.3632 6.3377 6.3365 6.3303 6.3869 6.3972 6.4053 6.3918 6.2942 6.2372 6.2776 6.313 6.4241 6.4301 6.4777 6.4924 6.4944 6.5101 6.5138 6.5309 6.5534 6.5544 6.581 6.6021 6.6023 6.6203 6.6194 6.6186 6.6195 6.6084 6.5949 6.5941 6.5922 6.5902 6.5797 6.5796 6.5745 6.5727 6.5727 6.5106 6.5 6.4822 6.3636 6.3705 6.3708 6.355 6.335 6.3056 6.2656 6.2561 6.2002 6.1917 6.138 6.1251 6.0858 5.9869 5.9513 5.8468 5.8116 5.6934 5.6074 5.5318 5.4142 5.4128 5.3302 5.3191 5.3023 5.2367 5.2364 5.1319 5.0974 5.0972 5.0708 5.0704 5.0622 5.0621 4.9879 4.9813 4.9812 4.9232 4.9016 4.9014 4.8926 4.8294 4.8279 4.7441 4.6724 4.6495 4.6476 4.6313 4.6311 4.5913 4.5621 4.5558 4.5344 4.491 4.4062 4.3966 4.3417 4.3277 4.3081 4.3004 4.2919 4.2497 4.2418 4.1879 4.0914 4.0891 3.9921 3.9479 3.8699 3.7955 3.7348 3.7338 3.7338 3.7006 3.6887 3.6788 3.6628 3.6625 3.5838 3.5424 3.5241 3.513 3.4756 3.4688 3.4655 3.4285 3.4188 3.4178 3.3968 3.3943 3.3943 3.3807 3.3803 3.3664 3.3652 3.3652 3.3614 3.3604 3.3598 3.3589 3.3565 3.3552 3.3703 3.373 3.373 3.3881 3.4059 3.4386 3.4777 3.5304 3.5376 3.542 3.5421 3.5543 3.6291 3.708 3.675 3.5995 3.5935 3.5875 3.5874 3.4906 3.4889 3.4888 3.5462 3.5469 3.5469 3.555 3.5589 3.5645 3.5747 3.5751 3.5745 3.5745 3.5723 3.5707 3.5698 3.556 3.5151 3.515 3.5042 3.5041 3.4698 3.472 3.472 3.4706 3.4691 3.4615 3.464 3.4724 3.4877 3.4673 3.4425 3.4369 3.434 3.4375 3.4376 3.4483 3.4484 3.4376 3.4342 3.4115 3.4083 3.3968 3.3734 3.3427 3.3677 3.377 3.4061 3.4963 3.4992 3.5234 3.5863 3.7322 3.7404 3.8384 3.8536 3.8675 3.8761 3.8982 3.9044 3.9587 3.9957 4.0141 4.0111 3.9987 3.9953 3.9946 3.9954 4.0038 4.0418 4.0549 4.058 4.059 4.0699 4.0797 4.0912 4.1352 4.1594 4.2071 4.3018 4.3111 4.3386 4.4736 4.5392 4.579 4.5872 4.5873 4.6185 4.6189 4.6215 4.6201 4.6143 4.5991 4.599 4.5868 4.5867 4.5379 4.5003 4.4614 4.2908 4.2026 4.1452 4.145 4.12 4.1197 4.0459 4.0456 3.9891 3.9675 3.9628 3.9625 3.9605 3.9408 3.8652 3.8276 3.8154 3.8153 3.7528 3.6967 3.6675 3.6061 3.6059 3.5917 3.5915 3.5169 3.516 3.4818 3.4817 3.4605 3.4602 3.4278 3.4277 3.3882 3.3881 3.3714 3.3206 3.313 3.313 3.284 3.2729 3.2728 3.2568 3.2511 3.2133 3.2098 3.1943 3.1487 3.107 3.1067 3.1359 3.1358 3.136 3.1436 3.1445 3.2059 3.2604 3.2664 3.2666 3.3613 3.5516 3.6451 3.6226 3.5378 3.5051 3.4676 3.4155 3.4146 3.3824 3.3577 3.3476 3.3265 3.2702 3.2498 3.2497 3.235 3.2639 3.3052 3.3186 3.3161 3.3096 3.3077 3.3051 3.3045 3.3011 3.3011 3.2998 3.299 3.3007 3.3008 3.3027 3.3075 3.3088 3.3094 3.2953 3.2593 3.2543 3.2525 3.2711 3.2757 3.3081 3.3104 3.3104 3.345 3.3452 3.3452 3.3773 3.3821 3.393 3.395 3.3926 3.3882 3.3858 3.3857 3.3813 3.3765 3.3722 3.3722 3.3597 3.3588 3.3538 3.372 3.3861 3.3752 3.3678 3.3668 3.3382 3.2671 3.2612 3.2542 3.2027 3.1537 3.1301 3.0777 2.972 2.962 2.9442 2.8751 2.8481 2.821 2.6611 2.6542 2.6142 2.6096 2.6086 2.5426 2.5261 2.5096 2.5269 2.5944 2.5964 2.5982 2.5997 2.5997 2.5973 2.6018 2.6078 2.6355 2.6413 2.6693 2.6993 2.7162 2.717 2.7049 2.7016 2.693 2.5951 2.5595 2.5312 2.4817 2.4811 2.46 2.4553 2.4219 2.3335 2.3063 2.2491 2.2064 2.1794 2.1784 2.1784 2.1757 2.1757 2.1094 2.1083 2.0408 2.0162 1.9985 1.8754 1.8616 1.8577 1.8801 1.8806 1.8776 1.8776 1.8575 1.823 1.8191 1.8041 1.8061 1.7997 1.8207 1.8502 1.871 1.9624 1.9896 1.9991 2.0565 2.075 2.0757 2.0778 2.0793 2.0937 2.094 2.094 2.117 2.2196 2.2238 2.293 2.3449 2.3485 2.3704 2.3714 2.3965 2.432 2.4373 2.4809 2.5208 2.5776 2.5877 2.5987 2.6053 2.6164 2.7064 2.7348 2.7349 2.7624 2.775 2.7704 2.7714 2.7703 2.7637 2.7614 2.7595 2.7603 2.7591 2.7556 2.741 2.7295 2.6957 2.6676 2.6093 2.5028 2.3988 2.3506 2.289 2.2169 2.0899 2.0839 1.9734 1.9715 1.948 1.8817 1.8492 1.849 1.8061 1.8128 1.8144 1.8412 1.8433 1.8766 1.8781 1.8756 1.8808 1.877 1.871 1.8709 1.8498 1.8496 1.8426 1.8082 1.8043 1.7943 1.789 1.7932 1.8019 1.8103 1.8267 1.8515 1.863 1.8649 1.8645 1.8631 1.8683 1.879 1.8797 1.8776 1.9049 1.9082 2.0195 2.0757 2.084 2.0949 2.0966 2.0913 2.096 2.0385 1.9939 1.9908 1.9872 1.9766 1.9666 1.9514 1.9297 1.9282 1.923 1.923 1.8823 1.8822 1.8813 1.8875 1.8995 1.9064 1.9183 1.9429 1.9534 1.9499 1.9227 1.8977 1.8975 1.874 1.8779 1.8775 1.8775 1.8673 1.8744 1.8748 1.8748 1.9034 1.9086 1.919 1.9096 1.9087 1.9328 1.9338 1.9607 1.9689 1.9695 1.9804 1.9907 1.9956 1.9941 1.9929 1.9912 1.9802 1.9651 1.962 1.9526 1.9522 1.9479 1.9452 1.943 1.9432 1.9606 1.9838 1.9978 2.0067 1.9885 1.94 1.924 1.9096 1.8953 1.8874 1.9184 1.9184 1.9175 1.9179 1.9168 1.9391 1.9445 2.083 2.0983 2.1207 2.1208 2.2038 2.2315 2.2393 2.2394 2.2662 2.2672 2.2817 2.2933 2.2914 2.283 2.2828 2.2769 2.2742 2.2709 2.2701 2.269 2.287 2.2946 2.2941 2.2718 2.2655 2.2729 2.2798 2.2802 2.293 2.2909 2.2855 2.2567 2.2562 2.2448 2.2136 2.1974 2.199 2.2006 2.1992 2.1992 2.2101 2.211 2.2084 2.19 2.1899 2.1793 2.1381 2.1373 2.1373 2.1206 2.1205 2.1179 2.1169 2.1081 2.1058 2.1022 2.1017 2.1292 2.1514 2.154 2.1541 2.1404 2.1358 2.1357 2.113 2.1087 2.0457 2.025 2.0187 1.9788 1.9776 1.9651 1.9633 1.9675 1.9594 1.949 1.9424 1.9301 1.8478 1.8408 1.7847 1.7821 1.7167 1.7092 1.7036 1.7151 1.7178 1.7278 1.7277 1.7277 1.719 1.7126 1.7108 1.6872 1.6868 1.6293 1.629 1.6167 1.6166 1.6206 1.6201 1.6199 1.623 1.6218 1.6192 1.6161 1.6067 1.5808 1.5435 1.5431 1.4812 1.4601 1.4503 1.4493 1.4486 1.4475 1.4475 1.4466 1.445 1.4388 1.4364 1.4249 1.3982 1.3961 1.3743 1.3742 1.3704 1.3559 1.3633 1.3389 1.3381 1.3359 1.3329 1.3055 1.3049 1.2671 1.2589 1.2346 1.2345 1.2278 1.2278 1.2061 1.2007 1.1983 1.175 1.1745 1.1676 1.1586 1.1508 1.1453 1.1452 1.1491 1.1436 1.1451 1.1344 1.1215 1.1006 1.0957 1.0957 1.0925 1.0922 1.083 1.0798 1.0639 1.0593 1.0527 1.0231 0.9823 0.94816 0.92281 0.89027 0.82771 0.82134 0.77859 0.7762 0.76398 0.75967 0.72816 0.72528 0.72527 0.71205 0.71026 0.70918 0.71409 0.71349 0.69944 0.69837 0.68891 0.68823 0.68616 0.67666 0.67527 0.67927 0.67691 0.672 0.67523 0.67058 0.6259 0.62433 0.63339 0.63462 0.64742 0.6538 0.70659 0.71158 0.75584 0.76342 0.76348 0.76529 0.78568 0.78616 0.78671 0.78863 0.79497 0.80545 0.81813 0.84506 0.85736 0.8916 0.89768 0.91698 0.92361 0.92732 0.92968 0.93663 0.93697 0.9351 0.93509 0.93589 0.93427 0.90105 0.89178 0.90381 0.91141 0.91037 0.90664 0.90294 0.90291 0.9014 0.87364 0.87386 0.86955 0.86414 0.85179 0.78524 0.7565 0.72179 0.69811 0.69204 0.6895 0.67575 0.68556 0.68423 0.67495 0.68003 0.68769 0.7545 0.79045 0.79797 0.81493 0.81522 0.7868 0.76728 0.75199 0.75097 0.74295 0.73644 0.72567 0.7059 0.70445 0.70205 0.70201 0.65285 0.61577 0.61154 0.57144 0.56748 0.56807 0.56919 0.56923 0.57036 0.57041 0.57217 0.57062 0.56498 0.56145 0.53421 0.52855 0.52944 0.52527 0.517 0.5212 0.52121 0.52136 0.51858 0.51316 0.52111 0.54859 0.55357 0.56718 0.57266 0.57569 0.57095 0.55843 0.55651 0.54624 1.7105 1.7051 1.7094 1.7286 1.7348 1.7355 1.7493 1.7498 1.7519 1.7492 1.7347 1.7233 1.7232 1.7042 1.704 1.6385 1.594 1.5558 1.5548 1.5217 1.5139 1.5007 1.4945 1.4922 1.4922 1.4871 1.4833 1.4893 1.5172 1.5218 1.5244 1.5318 1.5364 1.5344 1.5105 1.5001 1.4619 1.4425 1.4318 1.4194 1.4064 1.374 1.3627 1.3591 1.3538 1.3035 1.2683 1.2027 1.2021 1.1469 1.1423 1.1315 1.095 1.0772 1.0558 1.0192 0.96513 0.95883 0.94159 0.90129 0.84261 0.82063 0.8019 0.78766 0.78095 0.77368 0.77182 0.76587 0.77496 0.78303 0.79118 0.82598 0.82864 0.85578 0.86172 0.86828 0.90625 0.92148 0.93167 0.93242 0.92833 0.92805 0.88858 0.88586 0.85282 0.84278 0.84155 0.84154 0.8019 0.77792 0.77847 0.75386 0.75227 0.75202 0.74245 0.73389 0.69521 0.69403 0.69322 0.69034 0.69031 0.67731 0.66719 0.65439 0.64531 0.64279 0.63822 0.64024 0.63965 0.67131 0.67937 0.70838 0.70843 0.69978 0.69776 0.69705 0.69117 0.68935 0.66731 0.62904 0.62199 0.61739 0.60814 0.58541 0.58248 0.58247 0.54693 0.54665 0.54642 0.54218 0.51173 0.51204 2.2718 2.2712 2.2704 2.2701 2.2695 2.2684 2.2882 2.2942 2.2931 2.2694 2.2553 2.2552 2.2488 2.2216 2.1915 2.1871 2.1156 2.0957 2.0829 2.072 2.0718 2.0601 2.0373 1.992 1.9235 1.9126 1.8389 1.7736 1.7557 1.6109 1.5697 1.5673 1.5169 1.4813 1.4501 1.4037 1.4035 1.3897 1.3692 1.3473 1.234 1.2333 1.2333 1.137 1.1364 1.1364 1.1311 1.1216 1.033 1.0133 0.98269 0.93902 0.91795 0.90912 0.90857 0.88972 0.82997 0.82646 0.77898 0.74443 0.74119 0.71815 0.71769 0.68825 0.69641 0.70827 0.72175 0.72172 0.71529 0.71779 0.7268 0.73292 0.72669 0.70671 0.70062 0.69653 0.70832 0.72783 0.73521 0.77499 0.77932 0.79237 0.8078 0.80843 0.78191 0.77314 0.76759 0.73409 0.73195 0.73134 0.72806 0.71863 0.71933 0.71941 0.71027 0.64291 0.60882 0.58613 1.8239 1.8611 1.8617 1.862 1.8618 1.8592 1.8613 1.864 1.864 1.8648 1.8619 1.8769 1.8826 1.8827 2.0077 2.0581 2.0448 2.039 1.9586 1.9195 1.912 1.9103 1.8512 1.8198 1.8054 1.7777 1.7722 1.7677 1.7527 1.7526 1.7213 1.5932 1.5601 1.558 1.5104 1.5048 1.4932 1.34 1.3109 1.3104 1.2215 1.22 1.1999 1.1966 1.1591 1.1588 1.1509 1.1213 1.061 1.0555 1.0206 0.96993 0.95353 0.9574 1.0124 1.028 1.0647 1.059 1.0565 1.0499 1.0447 1.0446 1.0386 1.035 1.0283 0.99896 0.99873 0.97062 0.95877 0.91645 0.90044 0.85341 0.8522 0.84517 0.84123 0.83518 0.82823 0.81961 0.83233 0.83336 0.8634 0.8695 0.8719 0.86826 0.86972 0.83744 0.80728 0.79012 0.76788 0.75912 0.74107 0.72748 0.73447 0.72729 0.72717 0.72509 0.73491 0.73216 0.75269 0.75368 0.75344 0.74656 0.75394 0.76468 0.76807 0.77091 0.76971 0.78118 0.78379 0.80969 0.83495 0.83559 0.836 0.83566 0.85239 0.8534 0.8763 0.87998 0.88046 0.87754 0.8747 0.86415 0.84363 0.84404 0.84451 0.83265 0.84132 0.84395 0.84296 0.84139 0.85503 0.88794 0.90207 0.91744 0.91885 0.95121 0.95566 0.99233 0.99407 1.0077 1.0064 0.99614 0.99042 0.98987 0.98358 1.0224 1.0408 1.0781 1.0782 1.0776 1.0794 1.0798 1.0772 1.0754 1.0782 1.0812 1.0808 1.0484 1.0393 0.98118 0.95827 0.92553 0.91686 0.91682 0.90371 0.89788 0.90788 0.90814 0.90128 0.89715 0.89462 0.88309 0.88281 0.85975 0.85456 0.82504 0.8288 0.82695 0.8528 0.89093 0.89118 0.89437 0.90136 0.90283 0.8798 0.85948 0.8405 0.81159 0.81124 0.80409 0.79952 0.78137 0.7541 0.7532 0.75836 0.75906 0.77479 0.77999 0.79957 0.80138 0.78481 0.78504 0.7639 0.74392 0.7293 0.71096 0.69458 0.69364 0.69129 0.69174 0.69174 0.68715 0.66987 0.65103 0.64429 0.63359 0.62937 0.61193 0.60744 0.58471 0.58135 0.57131 0.56882 0.54154 0.53702 0.51525 0.50357 0.47114 0.44844 0.44608 0.38462 0.37697 0.36828 0.36563 0.37451 0.36428 0.35045 0.34086 0.33841 0.33337 0.34976 0.35521 0.34805 0.35556 0.36223 0.36483 0.36671 0.36905 0.36899 0.36492 0.36518 0.37774 0.3857 0.38815 2.6114 2.6126 2.6166 2.7432 2.8452 2.8516 2.8765 2.875 2.8543 2.8036 2.7538 2.6673 2.5526 2.5344 2.5146 2.5145 2.4891 2.367 2.2436 2.1485 2.1461 2.1369 2.1369 2.0746 2.0736 1.9471 1.8796 1.8395 1.8295 1.7992 1.7127 1.709 1.7059 1.7058 1.7005 1.6888 1.6588 1.658 1.6545 1.6511 1.6546 1.6578 1.6577 1.6536 1.6624 1.6636 1.7005 1.7016 1.7032 1.7033 1.6983 1.6929 1.6895 1.6779 1.6565 1.6518 1.63 1.6249 1.6023 1.5857 1.5774 1.5596 1.5542 1.5541 1.5492 1.5464 1.5453 1.5459 1.5541 1.5535 1.5546 1.5547 1.5383 1.5299 1.5035 1.5007 1.4887 1.4873 1.4576 1.4574 1.4538 1.4533 1.449 1.448 1.4441 1.4441 1.4404 1.4428 1.4429 1.4446 1.4312 1.431 1.4268 1.4249 1.4 1.38 1.334 1.33 1.316 1.2721 1.2474 1.2401 1.2024 1.1769 1.1791 1.1791 1.1776 1.1694 1.1625 1.1624 1.1632 1.1772 1.18 1.1818 1.1975 1.2003 1.1976 1.1973 1.197 1.1803 1.1643 1.1429 1.1389 1.1372 1.1313 1.1312 1.1284 1.1283 1.1078 1.0959 1.0852 1.0801 1.0756 1.0753 1.0753 1.0736 1.0782 1.0643 1.0637 1.0428 1.0416 1.0379 1.0305 1.0007 0.9966 0.98733 0.98249 0.97267 0.95837 0.95819 0.94479 0.93973 0.93017 0.92608 0.91588 0.91287 0.91213 0.90679 0.90208 0.88497 0.87981 0.83761 0.83356 0.81511 0.79697 0.77178 0.76628 0.74888 0.74015 0.73714 0.73297 0.73314 0.73348 0.74761 0.7595 0.78421 0.79947 0.80422 0.80551 0.80556 0.80901 0.80685 0.798 0.80117 0.80108 0.75293 0.74774 0.74455 0.71625 0.69314 0.67944 0.66132 0.65184 0.63907 0.5828 0.58178 0.53282 0.50344 0.52114 0.5421 0.58504 0.58511 0.62372 0.63338 0.63392 0.64996 0.66941 0.67918 0.66652 0.65871 0.64039 0.60803 0.57788 0.57739 0.54465 0.54398 0.51824 0.5131 0.46664 0.47755 0.49251 0.50088 0.51616 0.52908 0.53274 0.53449 0.53929 0.53968 0.51809 0.48675 0.48516 0.48417 0.476 0.47687 0.47773 0.48784 0.53359 0.5507 0.5566 0.55825 0.57303 0.572 0.57082 0.57279 0.56744 0.5564 0.60183 0.60515 0.61619 0.61731 0.60541 0.60514 0.59951 0.59489 0.60041 0.60691 0.60812 0.64073 0.64656 0.64489 0.63761 0.62833 0.61435 0.57821 0.56626 0.54568 0.50133 0.48142 0.4707 0.44498 0.46124 0.45973 0.45933 0.45648 0.4667 0.51094 0.51096 0.52973 0.53419 0.53459 0.53669 0.53872 0.54374 0.5467 0.57995 0.59966 0.60557 0.60209 0.6021 1.4392 1.4454 1.468 1.4684 1.4814 1.4921 1.4829 1.4448 1.4418 1.4353 1.3263 1.3062 1.282 1.2817 1.2529 1.2506 1.2256 1.1747 1.1161 1.0472 1.031 0.9286 0.92854 0.90653 0.90227 0.92214 0.93275 0.9458 0.94596 0.94767 0.95384 0.96368 0.99187 0.99298 0.99297 0.99297 1.0125 1.0126 1.0159 1.0159 1.0817 1.169 1.1855 1.1888 1.1704 1.1679 1.1571 1.1489 1.1363 1.1227 1.1215 1.1123 1.1083 1.0454 0.99145 0.96647 0.9584 1.0086 1.014 1.0141 1.0485 1.0508 1.0862 1.092 1.1037 1.0914 1.0903 1.0902 1.0914 1.1095 1.1427 1.1429 1.1628 1.1759 1.1743 1.1653 1.165 1.1642 1.1486 1.1439 1.1285 1.1227 1.0917 1.0723 1.0703 1.0874 1.0953 1.1092 1.1039 1.1002 1.088 1.0877 1.067 1.0668 1.0623 1.0615 1.0621 1.0742 1.1075 1.116 1.1451 1.1462 1.1455 1.1631 1.1682 1.1762 1.1789 1.199 1.215 1.2179 1.2173 1.2092 1.207 1.2061 1.2038 1.188 1.1789 1.1764 1.176 1.1735 1.1555 1.1539 1.1522 1.1495 1.1495 1.1458 1.1438 1.1365 1.1288 1.1201 1.1257 1.1448 1.1609 1.1664 1.1852 1.2106 1.2155 1.2161 1.2176 1.2127 1.2105 1.2105 1.2384 1.2421 1.249 1.2595 1.2267 1.2115 1.1868 1.1844 1.1713 1.1709 1.1587 1.151 1.0951 1.0946 1.0934 1.0856 1.0687 1.0608 1.065 1.0599 1.044 1.01 1.0091 1.0046 1.0046 1.0045 0.99749 0.99608 0.99998 1.0005 1.0004 0.98562 1.0087 1.0181 1.0476 1.0606 1.0683 1.0671 1.0399 1.034 1.0382 1.0727 1.0869 1.1609 1.284 1.2901 1.2901 1.3083 1.3104 1.3115 1.2993 1.2931 1.2685 1.2631 1.2606 1.2481 1.2478 1.2333 1.2385 1.2384 1.2384 1.262 1.2652 1.2823 1.2924 1.2924 1.3221 1.3286 1.3354 1.3365 1.336 1.3301 1.3203 1.3056 1.2963 1.2883 1.2882 1.2734 1.2689 1.2555 1.2522 1.2522 1.2415 1.2411 1.2373 1.2409 1.2361 1.2373 1.2368 1.2282 1.226 1.2146 1.2052 1.1913 1.1691 1.1602 1.1389 1.1221 1.1116 1.1139 1.1176 1.1307 1.1466 1.1415 1.1258 1.1012 1.0877 1.0843 1.0684 1.0672 1.0511 1.051 1.0493 1.0481 1.0462 1.0507 1.0567 1.0602 1.0823 1.086 1.0872 1.0888 1.0849 1.0768 1.0647 1.0479 0.9839 0.97403 0.92092 0.88371 0.87262 0.86129 0.85254 0.83314 0.7996 0.77229 0.73896 0.73883 0.70796 0.69681 0.68744 0.65732 0.64786 0.64101 0.64072 0.63419 0.61765 0.58133 3.316 3.1992 3.1627 3.1278 3.0529 3.0019 2.8722 2.8632 2.8014 2.7492 2.744 2.6986 2.5641 2.5377 2.5264 2.5185 2.5129 2.5123 2.4945 2.4908 2.507 2.5062 2.484 2.4833 2.4628 2.4694 2.499 2.5272 2.5297 2.5271 2.527 2.5249 2.5327 2.5327 2.4811 2.4792 2.3906 2.387 2.3062 2.2873 2.2559 2.2747 2.2823 2.2941 2.3065 2.3191 2.301 2.2732 2.2636 2.2443 2.2385 2.2223 2.1804 2.1631 2.1382 2.1331 2.1056 2.0878 2.0867 2.0639 2.0638 2.0484 2.0445 1.9237 1.81 1.7543 1.7308 1.4232 1.404 1.3635 1.3471 1.2876 1.2619 1.2593 1.2432 1.2434 1.2801 1.2861 1.3021 1.3292 1.3301 1.345 1.3454 1.3419 1.3384 1.3208 1.3105 1.3089 1.2858 1.2822 1.2762 1.2632 1.2542 1.2429 1.2547 1.2839 1.284 1.2805 1.2969 1.3056 1.2924 1.3443 1.3698 1.4587 1.4641 1.4906 1.5144 1.5679 1.5702 1.5705 1.6012 1.6019 1.6339 1.6314 1.636 1.6968 1.7108 1.7238 1.7478 1.7501 1.7395 1.729 1.7185 1.7144 1.707 1.6952 1.6446 1.6413 1.6217 1.6179 1.6137 1.6242 1.6298 1.627 1.6224 1.6174 1.6101 1.5862 1.5758 1.5543 1.5562 1.5581 1.5594 1.5555 1.555 1.5523 1.5605 1.5545 1.5518 1.5185 1.409 1.3822 1.3816 1.3816 1.3472 1.3468 1.268 1.1776 1.1704 1.1264 1.1254 1.0816 1.0721 1.0702 1.009 0.97049 0.96386 0.96133 0.93977 0.93348 0.92717 0.92115 0.9159 0.9445 0.94477 0.94556 0.94526 0.94276 0.93299 0.92518 0.91623 0.89113 0.88374 0.88304 0.87043 0.86692 0.84151 0.83672 0.83214 0.84484 0.85488 0.91844 0.92024 0.94967 0.94464 0.94259 0.94257 0.91296 0.90256 0.90486 0.9049 0.89559 0.89539 0.90366 0.90676 0.92662 0.93064 0.93928 0.95094 0.97245 0.97702 0.97534 0.96583 0.96388 0.95143 0.93873 0.93151 0.92701 0.928 0.92866 0.94555 0.9896 1.0093 1.0202 1.0194 1.0046 0.99177 0.98383 0.9598 0.95435 0.95008 0.99145 0.99351 1.0461 1.0526 1.1007 1.1034 1.1056 1.1068 1.108 1.1075 1.1044 1.0725 1.056 1.0483 1.042 1.0754 1.0918 1.1112 1.1325 1.1404 1.1555 1.1615 1.1663 1.1549 1.147 1.1261 1.0439 1.0274 1.0247 0.98505 0.98313 0.98311 0.99473 0.99924 0.99933 1.0121 1.0319 1.0344 1.0346 1.0313 1.0307 1.0453 1.0471 1.0496 1.1041 1.1085 1.1097 1.1084 1.1146 1.1176 1.1176 1.1156 1.1023 1.0925 1.1 1.1126 1.1425 1.183 1.1925 1.2105 1.2151 1.2045 1.1981 1.1892 1.1829 1.1723 1.1646 1.1892 1.2125 1.2476 1.2476 1.2388 1.2387 1.2386 1.2238 1.1942 1.1914 1.1531 1.1415 1.1086 1.1084 1.0469 1.0467 1.0369 1.0369 1.0331 1.011 0.95777 0.93764 0.87332 0.83445 0.81612 0.71373 0.68737 0.65159 0.67399 0.68853 0.69279 0.69149 0.66589 0.65476 0.65387 0.63241 0.63265 0.64535 0.66153 0.67123 0.68411 0.6834 0.6745 0.67129 0.66354 0.62908 0.62742 0.61328 0.61154 0.60308 0.52785 0.52176 0.52032 0.50797 0.45293 0.44287 0.41442 0.41495 0.40434 0.40702 0.4104 0.41622 0.41624 0.42689 0.48363 0.50262 0.50317 0.51086 0.51092 0.535 0.54849 0.60897 0.62932 0.64737 0.79394 0.80979 0.83577 0.84304 0.86641 0.8894 0.88999 0.88999 0.89966 0.89747 0.89521 0.8945 0.89458 0.89359 0.88003 0.87346 0.87135 0.86593 0.84966 0.83968 0.83967 0.83198 0.81401 0.81007 0.80129 0.79386 0.79358 0.7817 0.77293 0.76824 0.75882 0.73843 0.73766 0.71628 0.69522 0.67807 0.62209 0.62023 0.6027 0.57768 0.56963 0.56458 0.56572 0.56774 0.56947 0.57937 0.58793 0.62198 0.64327 0.6652 0.6732 0.69496 0.71238 0.71684 0.71612 0.71263 0.70992 0.7055 0.6964 0.70005 0.70003 0.69481 0.69104 0.6824 0.67962 0.65713 0.62646 0.59591 0.59093 0.56572 0.6415 0.66886 0.66959 0.67124 0.66706 0.6628 0.65932 0.61713 0.59015 0.56444 0.55995 0.46398 0.69039 0.69035 0.66207 0.6395 0.6379 0.63012 0.62587 0.62666 0.65485 0.70142 0.75803 0.77836 1.0444 1.0454 1.0513 1.1029 1.1114 1.1095 1.1091 1.1018 1.0774 1.0638 1.0704 1.081 1.1045 1.1374 1.1489 1.1474 1.139 1.103 1.0797 1.0142 0.94857 0.9152 0.84295 0.84245 0.80879 0.80697 0.79738 0.7155 1.5615 1.5438 1.4913 1.4848 1.4716 1.3981 1.3953 1.3942 1.3911 1.3849 1.3493 1.324 1.283 1.2748 1.2277 1.1906 1.1569 1.1158 1.109 1.0978 1.0943 1.0895 1.0878 1.0876 1.0889 1.0874 1.0857 1.0899 1.0842 1.0895 1.1168 1.1169 1.1138 1.1141 1.1189 1.1176 1.1129 1.1327 1.133 1.1395 1.1438 1.1427 1.142 1.1324 1.1167 1.0792 1.0489 1.0222 0.96435 0.95448 0.94549 0.9337 0.88139 0.87115 0.88795 0.88909 0.88978 0.88979 0.92717 0.92962 0.91737 0.91668 0.90285 0.89662 0.86999 0.83845 0.80839 0.79347 0.78966 0.81