# For a description of the Tecplot format see the Tecplot User's guide.
#
Variables=x,y,z,s_u,s_v,s_w,s_p,mono_f_vel_u,mono_f_vel_v,mono_f_vel_w,const,u_nu,v_nu,w_nu,p_nu,x_nu,y_nu,z_nu,const,u_ref,v_ref,w_ref,vol_ref,x_ref,y_ref,z_ref,const,I1,I2,I3,J,p1,p2,p3
Zone f=fepoint, n=356, e=1130, et=brick, c=black
-65.7897 -97.5233 92.1647 -65.789719216287679 -97.523256393439780 92.164652886768778 -18.005904363549391 -2.4984144698289216e-06 5.5943821815853495e-06 3.5452757098616185e-06 -8.7015605937384150e-21 3.3729720405606400e-12 2.3991225672759242e-13 1.4207903742402550e-09 1.2895075774422000e-07 3.3831793608754695e-14 -6.2371393831081951e-14 -1.6706966765852074e-15 2.1755246360533015e-21 -65.754724465942431 -97.517594547729473 92.373562431030237 2074.8615187338191 0.0000000000000000 0.0000000000000000 0.0000000000000000 0.0000000000000000 3.0054000691103231 3.0108068745131882 1.0054068078125420 1.0027083032479374 52.061228153005928 57.787153790929082 1.0026997600854590 
-75.786684139801338 -130.57737191927549 78.649945723475128 -75.786684139801324 -130.57737191927549 78.649945723475156 -19.456539101066074 -1.5039605932285625e-05 -3.9162498679222601e-06 4.1843087896654735e-06 -3.4239199148834554 3.8166865501398917e-12 7.3448191972858012e-13 1.5950385456875438e-09 1.3820704534897180e-07 1.6987909126385953e-13 5.7788865250709116e-14 -7.1123864956878158e-14 -1.5488558972632238e-07 -75.747104543999981 -130.56019973999997 78.884476808000016 2128.8259272129790 0.0000000000000000 0.0000000000000000 0.0000000000000000 0.0000000000000000 3.0054107725826613 3.0108283269065916 1.0054175567640853 1.0027083032479385 55.811228620744174 51.570352353613686 1.0027051205600874 
-63.456199285503935 -121.80873686830748 70.991579865814856 -63.456199285503935 -121.80873686830749 70.991579865814856 -13.462165019442182 1.0507313864801771e-05 -3.8706821455965814e-06 4.0610305352921638e-06 -2.5601009803909971 3.2725835930058626e-12 5.9887511616452106e-13 1.6937779512282700e-09 1.0083428436563534e-07 -1.2855922337870150e-13 9.0629678442212612e-15 -4.2468234494278872e-14 -5.5996536749659786e-08 -63.422274742800013 -121.79461816400000 71.240629883439979 1237.7701333319521 0.0000000000000000 0.0000000000000000 0.0000000000000000 0.0000000000000000 3.0054295661545218 3.0108659225125467 1.0054363587896751 1.0027083032479385 41.121949290305018 40.700446714182874 1.0027144944991659 
-56.182906962566342 -132.09724862929420 76.402624548390264 -56.182906962566342 -132.09724862929420 76.402624548390250 -13.501751628932249 1.4596671922713795e-05 6.2979360000452714e-07 -8.2108684878675339e-06 -16.153421805279748 2.9478225416212918e-12 7.3863831717702045e-13 1.6240169764536461e-09 9.8963774478875569e-08 -1.3254055924201974e-13 4.7915705007618209e-14 9.9269842448864044e-14 2.5031521246565936e-07 -56.152318124399997 -132.07954718800002 76.641416164000006 2090.5778096190215 0.0000000000000000 0.0000000000000000 0.0000000000000000 0.0000000000000000 3.0053874509754164 3.0107816721233762 1.0053942235932800 1.0027083032479380 49.905765206662295 45.041885375209738 1.0026934860310435 
-122.95907968833956 -110.39754835302793 88.992502007973940 -122.95907968833953 -110.39754835302793 88.992502007973940 -48.359507580092462 -1.4480547134617656e-06 9.1064500746325069e-07 -1.1595818566116585e-05 -52.600951144477918 5.9006792507698691e-12 4.3514497560792610e-13 1.4616861609972889e-09 3.0050435658735805e-07 -3.2472094694090547e-15 -2.0669701485279611e-14 6.0154856176460357e-14 3.1830749208568157e-07 -122.89786571200003 -110.38740333199999 89.207425400000020 2092.2379289329847 0.0000000000000000 0.0000000000000000 0.0000000000000000 0.0000000000000000 3.0054221909241590 3.0108511745409818 1.0054289860576395 1.0027083032479376 119.83053099376261 119.54927408242523 1.0027108190350265 
-122.83097080256306 -128.52057101378617 93.275136704411082 -122.83097080256309 -128.52057101378617 93.275136704411111 -45.426534094584269 -1.4964270994053422e-06 -5.8328857211214957e-06 -1.5791880827418374e-05 -57.819827931824413 5.8966824478812185e-12 6.9069056030102161e-13 1.4064776565625439e-09 2.9101059773887685e-07 -2.8536457641963500e-15 6.4216322811123705e-14 2.3544404447576415e-14 2.8661438206863731e-07 -122.76981557999994 -128.50411506799998 93.481940963999989 2295.0048277193882 0.0000000000000000 0.0000000000000000 0.0000000000000000 0.0000000000000000 3.0054265255595758 3.0108598505079986 1.0054333273889322 1.0027083032479376 115.11943251221892 113.72811639109408 1.0027129822396899 
-87.378841216746210 -119.56650846942716 107.83251223754795 -87.378841216746252 -119.56650846942723 107.83251223754800 -22.561913542083836 -9.7853455252849826e-06 3.8028334901614965e-06 -9.8589447703996964e-06 -1.0684425447331030e-20 4.3343002797957553e-12 5.5926790976101870e-13 1.2187755804582423e-09 1.5775547129390470e-07 1.0831412460199508e-13 -3.8039822231356547e-14 4.8060798431761049e-14 2.6751228423540087e-21 -87.333945182495114 -119.55317056945796 108.01171823852533 1853.2119812635015 0.0000000000000000 0.0000000000000000 0.0000000000000000 0.0000000000000000 3.0053817160730083 3.0107701474276776 1.0053884337617485 1.0027083032479382 65.327277280288342 67.900102179905886 1.0026905971868445 
-121.95756801130716 -118.96241888770156 106.85660129156905 -121.95756801130713 -118.96241888770156 106.85660129156905 -28.187326818227568 -1.7560566428350498e-06 7.1963381689355610e-06 -1.9803700333946261e-05 -26.840348023539349 5.8557152182725503e-12 5.5509069563086655e-13 1.2313642328010135e-09 1.8558221684089388e-07 -4.3387112659469853e-15 -6.7947715078483587e-14 7.2816232519561635e-14 1.6070952434161758e-07 -121.89681335200000 -118.94929134799999 107.03765745040002 1571.7251237143605 0.0000000000000000 0.0000000000000000 0.0000000000000000 0.0000000000000000 3.0054123426197061 3.0108314369085529 1.0054190966992544 1.0027083032479380 76.135486228011345 75.020467692839247 1.0027058865050880 
-44.200597215829085 -163.65301262140201 123.50036649627604 -44.200597215829106 -163.65301262140201 123.50036649627603 -9.9529452846158115 8.7349522176959875e-06 -3.8811873367680946e-06 7.3929913227420043e-07 0.0000000000000000 2.4187388203422699e-12 1.2122247650125926e-12 1.0167596209420540e-09 7.1598488454296844e-08 -1.0882007207845505e-13 8.0550047659563077e-15 -3.6805236149162189e-14 0.0000000000000000 -44.175503749389662 -163.62432261291502 123.64986896362305 1288.7765825848380 0.0000000000000000 0.0000000000000000 0.0000000000000000 0.0000000000000000 3.0053242544148300 3.0106550654890110 1.0053308133539551 1.0027473401724709 41.296396572542783 50.453174311245554 1.0026618737567801 
-15.490154015160918 -143.88657525845275 135.93706344055326 -15.490154015160924 -143.88657525845272 135.93706344055323 -10.854147750160241 1.3350493854936995e-06 -6.7355630079140024e-06 -1.0517943591064608e-06 -0.23444742460756707 1.1491380763617443e-12 9.2714724786446843e-13 8.5641016500659362e-10 9.2489660112735784e-08 5.0060014009048584e-15 7.9889826774785696e-15 1.0447758146458693e-13 -1.0260897546712427e-08 -15.478227839600008 -143.86476845600004 136.06298808800005 1207.7015194609139 0.0000000000000000 0.0000000000000000 0.0000000000000000 0.0000000000000000 3.0053292718868216 3.0106651241881712 1.0053358546204245 1.0027047082606591 47.616927605942799 48.418093775877189 1.0026643782374405 
-44.200597215829085 -163.65301262140201 139.16822075500411 -44.200597215829077 -163.65301262140201 139.16822075500414 -14.997700564448889 3.3293346439367160e-06 -4.1083700206591674e-06 1.4704821677434617e-06 0.0000000000000000 2.4187388203422699e-12 1.2122247650125928e-12 8.1474366142586518e-10 1.0580235624075860e-07 -4.3518134890364915e-14 6.2874664902413981e-14 -2.1818212268984071e-14 0.0000000000000000 -44.175503749389669 -163.62432261291511 139.28801968872074 2260.0113226803110 0.0000000000000000 0.0000000000000000 0.0000000000000000 0.0000000000000000 3.0053851992524190 3.0107771484040913 1.0053919515691729 1.0027066802505742 56.297562178541014 53.468311583504608 1.0026923551031286 
-5.8893963772125311 -161.48666492785463 130.28876307171558 -5.8893963772125328 -161.48666492785466 130.28876307171555 -26.238649228036774 6.4082965535754723e-06 -4.3876944592104452e-06 3.6605428738086923e-06 -33.700313461310898 7.2556804314727330e-13 1.1893402929175068e-12 9.2923468919536855e-10 1.7551763596578736e-07 -7.8116762310563559e-14 6.6590501937594673e-14 -2.5063716289886436e-14 2.1147807638090486e-07 -5.8818733370400009 -161.45872929999999 130.42539591680000 1840.5999298976626 0.0000000000000000 0.0000000000000000 0.0000000000000000 0.0000000000000000 3.0054205536341594 3.0108479103711265 1.0054273591927667 1.0027083032479380 78.940482321441110 76.117774820945655 1.0027100073363207 
-9.7899799512049572 -107.11797254837491 182.95230521479883 -9.7899799512049572 -107.11797254837492 182.95230521479883 -22.495756839324656 -1.7485830956267647e-07 2.3001976914184574e-06 -3.9707273834493630e-07 -23.154088635265307 8.9698040661723165e-13 3.7703867805660702e-13 2.5020757687954642e-10 1.4211116672909188e-07 9.6306705308347599e-15 -2.7598937741516168e-14 4.3155521050848389e-15 1.5590619743020699e-07 -9.7806680107999995 -107.10896956400003 182.98909712000000 1021.2952016557671 0.0000000000000000 0.0000000000000000 0.0000000000000000 0.0000000000000000 3.0054170655831789 3.0108409114241974 1.0054238482737494 1.0027083032479365 69.554520361738824 69.118755589282287 1.0027082567736523 
-17.578650734940485 -108.64676982477515 193.37688807144855 -17.578650734940485 -108.64676982477513 193.37688807144855 -24.811864753188551 -4.8121575960659866e-06 3.3179711671563034e-06 2.8570435697950322e-06 -26.662452448229836 1.2429605955599499e-12 4.0469017026367747e-13 1.1580636449792792e-10 1.4566532971233457e-07 -3.3880636317172925e-16 -4.1363404213731493e-14 7.3552581017822418e-15 1.8786157388869212e-07 -17.565766725200003 -108.63723447200002 193.39391677600000 1230.2822850381203 0.0000000000000000 0.0000000000000000 0.0000000000000000 0.0000000000000000 3.0054163452717044 3.0108394684552793 1.0054231256147990 1.0027083032479385 75.492921895821951 75.116743506356897 1.0027078964222436 
-44.200597215829085 -119.56650846942716 170.50392927246031 -44.200597215829049 -119.56650846942723 170.50392927246011 -24.137460189640016 3.6975529292726334e-07 2.6375052875135150e-06 5.3349868474506706e-06 0.0000000000000000 2.4187388203422695e-12 5.5926790976101870e-13 4.1071157586003437e-10 1.3045767969166208e-07 -1.9093946061226171e-14 -2.3474631859403904e-14 -7.1181029021451391e-14 0.0000000000000000 -44.175503749389591 -119.55317056945772 170.56432113891603 1872.3464537223574 0.0000000000000000 0.0000000000000000 0.0000000000000000 0.0000000000000000 3.0054209649826187 3.0108487154933239 1.0054277529457054 1.0027083032479387 72.253604001864616 73.174707081959824 1.0027102040281330 
-9.3409458911242975 -124.41213374123896 188.83899656037255 -9.3409458911242975 -124.41213374123893 188.83899656037258 -23.401008375049354 3.8872106974305326e-07 -7.4654455207317794e-06 -8.1544088765569058e-07 -23.452392971530177 8.7770242462870129e-13 6.2867766548180281e-13 1.7431339704998547e-10 1.4088818681962624e-07 -1.1828694791632968e-16 5.3569045376000340e-14 4.2974505145832917e-15 1.3656289159231789e-07 -9.3318398883999993 -124.39710846400000 188.86462832000004 1016.3527334425750 0.0000000000000000 0.0000000000000000 0.0000000000000000 0.0000000000000000 3.0054160475492471 3.0108388724923967 1.0054228273741133 1.0027083032479374 73.436537641713912 73.464862007055459 1.0027077477012105 
-44.200597215829085 -163.65301262140201 107.83251223754795 -44.200597215829099 -163.65301262140201 107.83251223754799 -19.157880259648195 -6.2873273611372197e-07 -1.9813589343940814e-05 -1.2234153674658844e-05 1.6237666431781740e-19 2.4187388203422699e-12 1.2122247650125928e-12 1.2187755804582423e-09 1.3952826023814071e-07 9.9760321569374575e-15 2.5607804677783939e-13 7.7589483644042804e-14 -4.0650916607010512e-20 -44.175503749389662 -163.62432261291499 108.01171823852535 1450.3671205666894 0.0000000000000000 0.0000000000000000 0.0000000000000000 0.0000000000000000 3.0056264048370496 3.0112603549806725 1.0056339529531260 1.0027907952426547 53.535672704172534 79.712502750944111 1.0028129983161094 
-61.186538391933169 -160.98260597694764 85.781772402436090 -61.186538391933162 -160.98260597694758 85.781772402436047 -45.928817316886828 -7.9394301065317193e-06 -2.9414363853999417e-05 -6.3694565269162379e-06 -30.614422706148808 3.1709149195258135e-12 1.1600234661734987e-12 1.5030850453179312e-09 3.1686956162208074e-07 6.4604517576153282e-14 3.2976408713091628e-13 1.1349420100964393e-13 3.7300776298407982e-07 -61.153654769600031 -160.95484587600001 86.002782780800032 1645.6757988676138 0.0000000000000000 0.0000000000000000 0.0000000000000000 0.0000000000000000 3.0048896874123883 3.0097854200799588 1.0048957348287195 1.0025830639487556 114.35933865166380 111.38175508720514 1.0024448824182213 
-44.257818216949062 -168.03182533304647 83.050200784518893 -44.257818216949076 -168.03182533304650 83.050200784518893 -63.569711918620108 7.3434757362027934e-06 -4.0625627999685178e-05 -6.7373271374166398e-06 -49.039306929447328 2.4205810966737577e-12 1.2876991140053917e-12 1.5383048723727202e-09 4.0788043457958543e-07 -3.6254095765415238e-14 3.7926288991614448e-13 1.0859607803138360e-13 4.6279007163302591e-07 -44.232698507600013 -168.00161050399998 83.276389748800028 1737.4139093181343 0.0000000000000000 0.0000000000000000 0.0000000000000000 0.0000000000000000 3.0054508452084656 3.0109084547980633 1.0054576120119716 1.0027083032479376 143.24201319781622 137.66382955099172 1.0027251002047335 
-44.200597215829085 -185.69626469738941 107.83251223754795 -44.200597215829070 -185.69626469738952 107.83251223754803 -59.488631045820853 2.8332193587573789e-07 -1.4098524617785021e-05 -3.1757309117320073e-05 -9.1355280327191161e-21 2.4187388203422699e-12 1.5315942958338265e-12 1.2187755804582423e-09 3.8816246711728733e-07 6.1043105073186846e-15 1.9646196706462084e-13 9.8676443468831136e-14 2.2885955195651688e-21 -44.175503749389676 -185.65989863464350 108.01171823852533 1616.4576808433910 0.0000000000000000 0.0000000000000000 0.0000000000000000 0.0000000000000000 3.0052618621685410 3.0105301177625674 1.0052682577726773 1.0026777524473061 138.03911737494010 141.12525575397135 1.0026306647824585 
-87.378841216746210 -141.60976054541459 139.16822075500411 -87.378841216746267 -141.60976054541462 139.16822075500417 -22.691886646007429 -1.5995021314724728e-06 -2.7338462603290360e-06 -2.6308219552718253e-07 0.0000000000000000 4.3343002797957553e-12 8.9285523419135870e-13 8.1474366142586529e-10 1.4634177013690836e-07 3.9094936622928433e-14 2.8084743487102074e-14 -2.6844249792422742e-14 0.0000000000000000 -87.333945182495100 -141.58874659118649 139.28801968872074 1877.7986991733408 0.0000000000000000 0.0000000000000000 0.0000000000000000 0.0000000000000000 3.0053339856443544 3.0106744551697200 1.0053404717780656 1.0026768214591137 71.296894347812852 72.694255308457755 1.0026666757387659 
-65.789719216287651 -163.65301262140201 139.16822075500411 -65.789719216287693 -163.65301262140201 139.16822075500409 -19.800937407482301 -5.9162758808177436e-06 -1.0561873611073459e-06 2.7214111679840599e-06 7.8103340382311861e-21 3.3729720405606400e-12 1.2122247650125928e-12 8.1474366142586518e-10 1.1021112997970767e-07 6.1610824929105195e-14 2.8651015678104244e-14 -1.5138785870094037e-13 -1.9548399639960205e-21 -65.754724465942374 -163.62432261291517 139.28801968872077 2018.1238718776010 0.0000000000000000 0.0000000000000000 0.0000000000000000 0.0000000000000000 3.0052995262874025 3.0106055066459563 1.0053059825994664 1.0026865629873620 64.201860312511570 63.706775103814707 1.0026494876690515 
-87.378841216746210 -163.65301262140201 123.50036649627604 -87.378841216746252 -163.65301262140201 123.50036649627602 -29.967568667244418 -7.7179999444948471e-06 -5.2792097087193998e-06 -5.3112498389030159e-07 0.0000000000000000 4.3343002797957545e-12 1.2122247650125930e-12 1.0167596209420537e-09 2.8622263906502060e-07 -1.8412582559115226e-15 7.6650960729948796e-14 3.3278556267765537e-13 0.0000000000000000 -87.333945182495114 -163.62432261291505 123.64986896362312 1549.0027140339625 0.0000000000000000 0.0000000000000000 0.0000000000000000 0.0000000000000000 3.0055831729240334 3.0111733403278191 1.0055901698862320 1.0027442286977739 82.228009807332143 74.189290806547930 1.0027911767117035 
-87.378841216746210 -141.60976054541459 123.50036649627604 -87.378841216746281 -141.60976054541459 123.50036649627603 -17.073742524648466 -8.5680806462998036e-06 -5.4097108568594374e-06 7.8932066472811033e-06 0.0000000000000000 4.3343002797957545e-12 8.9285523419135891e-13 1.0167596209420540e-09 1.0746208026217876e-07 1.4145334072740899e-13 4.4475671319790996e-14 -1.3121821769194130e-14 0.0000000000000000 -87.333945182495086 -141.58874659118649 123.64986896362313 1389.1126189879024 0.0000000000000000 0.0000000000000000 0.0000000000000000 0.0000000000000000 3.0053118311247444 3.0106299601547160 1.0053181311406538 1.0027033688236242 55.729207958961354 69.652228256828963 1.0026555488823659 
-45.223196382695320 -110.34383715334110 48.555537698608596 -45.223196382695320 -110.34383715334114 48.555537698608603 -82.584877823825067 1.3058458759378611e-05 6.1792034551865145e-06 -1.6543137233860388e-05 -85.583754081873948 2.4677308807508069e-12 4.3062081678257874e-13 1.9830601050152552e-09 5.3907163454511649e-07 -5.3483072781331107e-14 1.8970642069263488e-14 1.4791857591162642e-13 5.1961307415139958e-07 -45.197633928000002 -110.33371083599998 48.847122559999995 1069.0094105005942 0.0000000000000000 0.0000000000000000 0.0000000000000000 0.0000000000000000 3.0054175155949916 3.0108418114787190 1.0054242983161612 1.0027083032479374 180.33786249150810 180.34377987261635 1.0027084811880831 
-57.154667581056955 -98.837376989106602 45.929472675692367 -57.154667581056927 -98.837376989106644 45.929472675692374 -89.093584501361505 -1.0648195271263469e-07 7.6974838138931209e-06 -1.5769043623619058e-05 -83.765139412817661 2.9940182277865546e-12 2.6366409056066686e-13 2.0169252934465476e-09 5.8602628984217876e-07 3.8185958272234006e-14 -1.3148262986923040e-14 1.0311202049535900e-13 6.6159899502296762e-07 -57.123633070400032 -98.831257531200038 46.226036100800002 1475.5774262919704 0.0000000000000000 0.0000000000000000 0.0000000000000000 0.0000000000000000 3.0054171935535683 3.0108411663773591 1.0054239752556666 1.0027083032479380 187.53718847644689 187.50294057018283 1.0027083201242766 
-60.172059483820739 -105.59546661879109 56.985299728229847 -60.172059483820725 -105.59546661879109 56.985299728229847 -59.373591468793386 5.0685334027520065e-06 3.4755821452608932e-05 -3.5518490105971758e-05 6.4574477798606669 3.1259300703467829e-12 3.5160069300488317e-13 1.8743735452630972e-09 3.9204672039605956e-07 5.8854868810192806e-14 -1.9876675481080127e-13 3.8689672894151802e-13 8.2973677050825190e-07 -60.139641125599979 -105.58699381199996 57.260903223199996 1724.6135661994952 0.0000000000000000 0.0000000000000000 0.0000000000000000 0.0000000000000000 3.0054162123197097 3.0108392028503563 1.0054229929624385 1.0027083032479380 132.77675370279579 132.98760835422061 1.0027078303747285 
-19.419749239625023 -88.118443205175112 57.424305408441256 -19.419749239625023 -88.118443205175112 57.424305408441235 -70.317820639776883 -2.0358152339545140e-06 -6.2378873125675533e-06 -3.1324675828626894e-05 -72.659914346291785 1.3228827755451533e-12 9.4379365433994154e-14 1.8687130176608946e-09 4.6071610095703717e-07 -2.3493637179617741e-14 -4.5851883502280953e-15 7.8203001449778757e-14 4.8721099404105128e-07 -19.406020858399991 -88.116056368799974 57.699076624800000 1439.6451283969650 0.0000000000000000 0.0000000000000000 0.0000000000000000 0.0000000000000000 3.0054167787755337 3.0108403365714045 1.0054235602278097 1.0027083032479371 159.15074107637980 159.22978381148820 1.0027081131962574 
-58.808329818619399 -178.62222784052460 78.520405142606364 -58.808329818619420 -178.62222784052466 78.520405142606364 -98.729037727388302 -2.2662649848876099e-06 -7.8599616770496835e-06 -1.0660312386031459e-05 -112.79897180301060 3.0647151483265134e-12 1.4317089180870825e-12 1.5967181465903481e-09 6.0279428915334378e-07 1.4094557980941716e-14 4.1506782910313195e-14 1.4609072876046202e-13 8.5896780619785245e-07 -58.776536899199989 -178.58832514800000 78.755181813599989 1584.4809985467919 0.0000000000000000 0.0000000000000000 0.0000000000000000 0.0000000000000000 3.0055620328197601 3.0111312407017854 1.0055692105552703 1.0027083032479378 214.84833854933061 215.10482388367106 1.0027807542836256 
-74.502367269192973 -184.97892954331886 71.978588455675947 -74.502367269192973 -184.97892954331886 71.978588455675933 -98.966759644331106 1.3743926411602655e-05 -1.5521748242901337e-05 -1.2509279964130593e-06 -99.012621871044971 3.7655052687046719e-12 1.5286938381819937e-12 1.6810648983955900e-09 6.0029298820355194e-07 -1.6406464093365003e-13 1.0902989800286571e-13 8.4570380124053625e-15 5.5532835214883665e-07 -74.463376691600018 -184.94281327599995 72.225767276240006 1182.3928641350060 0.0000000000000000 0.0000000000000000 0.0000000000000000 0.0000000000000000 3.0054317993260518 3.0108702880652776 1.0054384910854388 1.0027083032479382 205.49247645216542 205.94774628662739 1.0027155558140968 
-69.773595155633913 -211.63386359348840 86.372377070429067 -69.773595155633899 -211.63386359348848 86.372377070429039 -101.29572647013218 2.2310776814145070e-06 2.2887677865371293e-06 -1.1978109873574324e-05 -104.39757023110177 3.5533624653805159e-12 1.9194923428500488e-12 1.4954731342164960e-09 6.0717142586765469e-07 -2.9216165007755106e-14 1.4973075448830257e-15 5.7038263905769037e-14 6.3566939508216437e-07 -69.736773305200003 -211.58846536000007 86.592267764799999 1391.6778601551057 0.0000000000000000 0.0000000000000000 0.0000000000000000 0.0000000000000000 3.0054120263599455 3.0108309513010529 1.0054189274754786 1.0027083032479378 218.08242650888377 217.86211419279968 1.0027058072661179 
-86.858501490499037 -207.31781187599790 90.095295542804422 -86.858501490499052 -207.31781187599790 90.095295542804450 -87.722305676484211 1.5805055175230079e-05 -8.1788980135704234e-06 -1.0789801761708617e-05 -98.812023980571524 4.3072524713583249e-12 1.8410828417358971e-12 1.4474726417468273e-09 5.3474263735092873e-07 -1.5379238587179908e-13 9.1188418065229250e-14 -9.6019592062950363e-15 5.8665396570044343e-07 -86.813844096400004 -207.27391660800001 90.308128229600001 1955.0875990986240 0.0000000000000000 0.0000000000000000 0.0000000000000000 0.0000000000000000 3.0055251249651778 3.0110573305651505 1.0055322082138596 1.0027083032479382 193.22311432020769 194.42932597795226 1.0027623015010609 
-74.412562296500397 -212.63108901424695 100.46390811189860 -74.412562296500397 -212.63108901424692 100.46390811189860 -85.185913797598005 -1.8895327752963862e-06 1.7634009210725863e-06 3.8197393363535240e-06 -94.829011436513269 3.7613419323623276e-12 1.9386575678126405e-12 1.3137777532534756e-09 5.0978603624451727e-07 9.5340040815424029e-15 -1.3428901167807588e-14 -3.5647775744086217e-15 5.3743879969586770e-07 -74.373612905599998 -212.58534351999998 100.65708370800000 988.41240310934302 0.0000000000000000 0.0000000000000000 0.0000000000000000 0.0000000000000000 3.0054770441493344 3.0109612075381089 1.0054841660684835 1.0027083032479376 201.17995769012819 201.01129158503946 1.0027383471239926 
-65.789719216287651 -185.69626469738941 107.83251223754795 -65.789719216287693 -185.69626469738955 107.83251223754803 -59.846313243728076 2.5164499082234735e-06 -1.8315946347227266e-05 -2.0973212582113991e-05 -3.5338664747273429e-20 3.3729720405606400e-12 1.5315942958338265e-12 1.2187755804582425e-09 4.0894741755339936e-07 -3.5183850660495044e-14 1.4962280290475185e-13 3.7188196887194544e-14 8.8518342860093560e-21 -65.754724465942374 -185.65989863464350 108.01171823852535 1808.0980320372519 0.0000000000000000 0.0000000000000000 0.0000000000000000 0.0000000000000000 3.0051546433463860 3.0103148317073760 1.0051601899249369 1.0026441300425204 134.92047305653821 134.55314086566423 1.0025767426733740 
-83.504476590250476 -208.40490026546328 108.84761112000533 -83.504476590250462 -208.40490026546328 108.84761112000534 -66.060496354936618 1.8947141139905783e-05 -1.3270119924754701e-05 -2.7748701658419598e-05 -63.823108580776825 4.1603075151552815e-12 1.8590823325226320e-12 1.2056920462022447e-09 4.1843925599138592e-07 -1.9014733947426523e-13 9.9723047548871461e-14 1.1083200286449321e-13 3.9966963328330893e-07 -83.461357431600007 -208.36062644399999 109.02489266960001 1287.0831768928649 0.0000000000000000 0.0000000000000000 0.0000000000000000 0.0000000000000000 3.0055220775663765 3.0110513089115658 1.0055292340187698 1.0027083032479376 148.77780076135500 150.66031154112940 1.0027608126647154 
-41.582733624844813 -130.06326559360190 65.495184165556552 -41.582733624844813 -130.06326559360193 65.495184165556552 -47.146672350569517 1.2260193359614971e-05 -3.9740519378756985e-07 -1.2160399406997807e-05 -51.695884590641647 2.3066271115368409e-12 7.1922329203388803e-13 1.7646477057375874e-09 3.0964633768571470e-07 -9.3707977134584395e-14 5.4168784209135605e-14 1.2617944461640303e-13 4.3953123348855806e-07 -41.558840772800004 -130.04627243999997 65.754654395919971 2180.9238908936368 0.0000000000000000 0.0000000000000000 0.0000000000000000 0.0000000000000000 3.0054209323117225 3.0108486548004043 1.0054277249254684 1.0027083032479380 120.25601951506822 120.68865560042741 1.0027101893763015 
-22.803378052530778 -134.46364013857269 55.627816690284746 -22.803378052530778 -134.46364013857269 55.627816690284753 -73.292497093698643 3.9493731903796573e-06 2.7468259442602392e-06 -4.4445290836968363e-06 -75.450370424895354 1.4717064372726796e-12 7.7391565378448490e-13 1.8918765998243714e-09 4.7578103134156055e-07 -1.3647422938245519e-14 -1.6730522489514666e-15 2.4684644547648267e-14 4.6668839612533468e-07 -22.788097858800000 -134.44511465599999 55.905993737599999 935.86986824075086 0.0000000000000000 0.0000000000000000 0.0000000000000000 0.0000000000000000 3.0054154650536549 3.0108377044863808 1.0054222418623249 1.0027083032479385 160.66070605352368 160.47632457224987 1.0027074560209075 
-11.035652633871269 -103.61021804575168 61.842246573109328 -11.035652633871273 -103.61021804575169 61.842246573109350 -68.151058132745007 -1.2759768731594148e-06 -9.0129532523544759e-06 -2.3488746917761164e-05 -61.061913041788863 9.5329907162655658e-13 3.3091585027733572e-13 1.8117521372040812e-09 4.4256397301464401e-07 -3.5533215284832596e-14 3.5230160788379266e-14 6.2514332802974213e-14 4.2856668802323981e-07 -11.025769398400001 -103.60243655599999 62.108642139439993 1284.9349949311236 0.0000000000000000 0.0000000000000000 0.0000000000000000 0.0000000000000000 3.0054164202265237 3.0108396188079851 1.0054232010134174 1.0027083032479380 158.04756367397292 158.03968834495211 1.0027079341938820 
-29.012382585420145 -140.78503517863572 69.819976115072123 -29.012382585420148 -140.78503517863575 69.819976115072123 -52.597391787633747 6.2366639065748288e-06 6.1274668184426585e-06 -1.5099268712839375e-05 -51.850052453055589 1.7468769486495006e-12 8.7329449227624403e-13 1.7088855885916136e-09 3.3849065665673202e-07 -3.8122264315078684e-14 9.9431411291075150e-15 1.2960623064027344e-13 4.9762852368358262e-07 -28.994254794799993 -140.76430841599998 70.071247290159988 2176.9829965296321 0.0000000000000000 0.0000000000000000 0.0000000000000000 0.0000000000000000 3.0054207036920313 3.0108481989859013 1.0054274977319386 1.0027083032479382 127.95582157940723 128.31040123449597 1.0027100758802379 
-103.45866329841556 -194.09321306639723 93.834672723635776 -103.45866329841556 -194.09321306639728 93.834672723635776 -66.583118393812185 1.4528923590871582e-06 -4.8210795487075184e-06 -1.8671955791627476e-05 -80.342333107798154 5.0448568933436633e-12 1.6615042675027780e-12 1.3992604297463629e-09 4.2601022357054382e-07 -1.7137062042505626e-14 1.7884742782650172e-14 9.8945195870378015e-14 3.6048081447375611e-07 -103.40639267600000 -194.05392295999994 94.040416199999996 2662.2783756828549 0.0000000000000000 0.0000000000000000 0.0000000000000000 0.0000000000000000 3.0054552011541626 3.0109174231207230 1.0054622245812170 1.0027083032479376 152.29377217560895 150.53700617922206 1.0027274000154822 
-82.551182780276676 -162.32961150056181 77.565306157420096 -82.551182780276633 -162.32961150056187 77.565306157420096 -73.565779623486350 -8.9694813580485305e-06 -8.5130114721597273e-06 -1.1737451574896401e-05 -78.286486488756978 4.1176541343279646e-12 1.1997070004099442e-12 1.6090225263276634e-09 4.7309768867412366e-07 8.0059557834642138e-14 5.7863503825581623e-14 1.7489366458876844e-13 7.0607337590582644e-07 -82.508500824799995 -162.30138233600007 77.801893530400037 2229.3857910936085 0.0000000000000000 0.0000000000000000 0.0000000000000000 0.0000000000000000 3.0055273007778625 3.0110616909355929 1.0055343927801206 1.0027083032479378 164.06490582664571 161.76504824215678 1.0027633925606774 
-28.008762731947709 -125.07732148842406 127.41733006095807 -28.008762731947716 -125.07732148842399 127.41733006095811 -5.8703788136409143 1.5422088268540208e-06 -7.9244443436834124e-07 5.6371869150171940e-06 -8.0483277478773999e-21 1.7045462263887146e-12 6.4622612816478409e-13 9.6626623369289177e-10 4.0865981558295927e-08 -6.2873335875459591e-15 -6.3925798402424890e-15 -7.3707559570146771e-14 2.0126066099152502e-21 -27.991095225219734 -125.06206457489009 127.55940664489751 1124.7619503421174 0.0000000000000000 0.0000000000000000 0.0000000000000000 0.0000000000000000 3.0054191704151418 3.0108450959706645 1.0054259279535245 1.0027216192073414 36.536655856953082 36.938267180587445 1.0027092913839839 