# For a description of the Tecplot format see the Tecplot User's guide.
#
Variables=x,y,z,s_u,s_v,s_w,s_p,mono_f_vel_u,mono_f_vel_v,mono_f_vel_w,const,u_nu,v_nu,w_nu,p_nu,x_nu,y_nu,z_nu,const,u_ref,v_ref,w_ref,vol_ref,x_ref,y_ref,z_ref,const,I1,I2,I3,J,p1,p2,p3
Zone f=fepoint, n=356, e=1130, et=brick, c=black
-66.0566 -97.5664 90.5515 -66.056589043238930 -97.566392509702425 90.551501698085573 -93.235090395019157 -1.6522426601236543e-05 3.3774220344124517e-05 2.8832231247923162e-05 -9.6690364211518171e-20 1.0013740350811595e-08 7.0896824522215240e-10 4.2405159801361947e-06 0.00032664399169029986 7.7940096663304251e-11 -1.5356252213634956e-10 -2.6246890111256323e-11 1.4526570837915384e-20 -65.754724465942431 -97.517594547729473 92.373562431030237 2074.8615187338191 0.0000000000000000 0.0000000000000000 0.0000000000000000 0.0000000000000000 3.0472742684366811 3.0950599443368580 1.0477872580817109 1.0236539766775619 372.88963555355446 403.21220772859357 1.0236148136107959 
-76.088517979965616 -130.70820224556974 76.838950926076862 -76.088517979965644 -130.70820224556974 76.838950926076876 -96.668551184446130 -9.0528164886617053e-05 -2.3028149004657771e-05 2.6286540561587543e-05 -6.8526001094788009 1.1325694840302880e-08 2.1502752634017241e-09 4.7605906043912682e-06 0.00035197246169849160 4.2147877372953112e-10 1.1952242700133967e-10 -1.6251254409029921e-10 -0.00030649216618590440 -75.747104543999981 -130.56019973999997 78.884476808000016 2128.8259272129790 0.0000000000000000 0.0000000000000000 0.0000000000000000 0.0000000000000000 3.0473178169288904 3.0951491065480572 1.0478328851102501 1.0236539766775627 383.72749482765471 362.88436167366666 1.0236371073089769 
-63.714907713238802 -121.91630357034143 69.068473224642773 -63.714907713238802 -121.91630357034140 69.068473224642773 -59.118712292338209 6.7336932640382600e-05 -2.1592878723075457e-05 2.2653463960857155e-05 10.623292055291854 9.7075034816151984e-09 1.7679233355050172e-09 5.0553007699960517e-06 0.00024959521532453801 -3.0974796602047388e-10 4.9774057982818751e-11 -1.1229856796655635e-10 -0.00011031028118871819 -63.422274742800013 -121.79461816400000 71.240629883439979 1237.7701333319521 0.0000000000000000 0.0000000000000000 0.0000000000000000 0.0000000000000000 3.0474163913199961 3.0953469829536999 1.0479321859195567 1.0236539766775616 294.22642645784350 293.16649601409858 1.0236855788875723 
-56.416177320764383 -132.23211126398061 74.558730915238584 -56.416177320764398 -132.23211126398061 74.558730915238584 -65.889763066013742 8.4988232897768474e-05 3.4805057279152401e-08 -4.8817390717414095e-05 -85.963567471958228 8.7529912068395888e-09 2.2165571322840805e-09 4.8470722919802256e-06 0.00024748659663833986 -3.4478759327234690e-10 9.3025764853282360e-11 2.4592115991587714e-10 0.00060017651020552443 -56.152318124399997 -132.07954718800002 76.641416164000006 2090.5778096190215 0.0000000000000000 0.0000000000000000 0.0000000000000000 0.0000000000000000 3.0471836707842370 3.0948799971953282 1.0476979230362360 1.0236539766775621 360.61492346217716 329.46780218780566 1.0235711836562493 
-123.42589722844369 -110.47484060522559 87.332913277606238 -123.42589722844369 -110.47484060522558 87.332913277606252 -264.78147957689106 -8.1994738866610037e-06 2.0020634615807366e-06 -4.6342332771287147e-05 -280.62531376027761 1.7516373754244974e-08 1.2703434137950609e-09 4.3625870822516779e-06 0.00082040229420446962 6.3771389237306350e-12 -3.2059132646658551e-11 1.8941570984082193e-10 0.00089131396270159089 -122.89786571200003 -110.38740333199999 89.207425400000020 2092.2379289329847 0.0000000000000000 0.0000000000000000 0.0000000000000000 0.0000000000000000 3.0473775833567247 3.0952692872975791 1.0478933004505009 1.0236539766775619 749.22310134736642 762.13638704753782 1.0236666029680488 
-123.29734028660124 -128.64594454513281 91.678242037104752 -123.29734028660120 -128.64594454513281 91.678242037104766 -256.35542829211875 -7.8380234515479039e-06 -4.7972235787383481e-05 -9.0454354954517396e-05 -338.64311858739381 1.7499564200496032e-08 2.0605833428444242e-09 4.1977822053951286e-06 0.00078481688203092652 3.3752362295964786e-12 1.8234795821049544e-10 1.2876105080724944e-10 0.00082405521052191834 -122.76981557999994 -128.50411506799998 93.481940963999989 2295.0048277193882 0.0000000000000000 0.0000000000000000 0.0000000000000000 0.0000000000000000 3.0473964393135797 3.0953077017700270 1.0479128629800185 1.0236539766775627 757.82070094694768 759.38481934322056 1.0236761185244672 
-87.721218195383727 -119.66812642816478 106.44872494090806 -87.721218195383713 -119.66812642816470 106.44872494090806 -115.39387708154869 -6.2182152595248485e-05 3.2304398733119047e-05 -6.2466284401795701e-05 -9.7123220701212314e-20 1.2846989541626110e-08 1.6701620364489855e-09 3.6375835059665467e-06 0.00040772475775586493 2.7649043291229454e-10 -1.1956394436938040e-10 1.3312663862088618e-10 1.3609694052089656e-20 -87.333945182495114 -119.55317056945796 108.01171823852533 1853.2119812635015 0.0000000000000000 0.0000000000000000 0.0000000000000000 0.0000000000000000 3.0471561341457929 3.0948216578586032 1.0476670975949498 1.0236539766775621 438.10857632199844 447.15375880336194 1.0235561007763296 
-122.42088280154904 -119.06243416677842 105.45852750384918 -122.42088280154904 -119.06243416677842 105.45852750384917 -145.33124404105246 -1.3625447309673198e-05 4.7158055649250844e-05 -0.00015465361606450606 -140.09826020959102 1.7384932396447006e-08 1.6438121697159860e-09 3.6751386289779479e-06 0.00049373395352363906 -9.6344597300026009e-12 -1.8157776566909027e-10 2.2066542411991456e-10 0.00042474368820303882 -121.89681335200000 -118.94929134799999 107.03765745040002 1571.7251237143605 0.0000000000000000 0.0000000000000000 0.0000000000000000 0.0000000000000000 3.0473241003755409 3.0951611032808057 1.0478385930080576 1.0236539766775619 495.34257088112923 505.88789903400482 1.0236398512213623 
-44.391959891094046 -163.87159426508953 122.34594301713624 -44.391959891094061 -163.87159426508956 122.34594301713625 -46.109940081861872 4.7376078013530432e-05 -1.1308437255166374e-05 -3.1786664778736569e-06 0.0000000000000000 7.1804911322415049e-09 3.5925360186706010e-09 3.0346512112089381e-06 0.00019969381340346397 -2.9190623309652600e-10 5.9672550930448422e-13 -4.3223541423981849e-11 0.0000000000000000 -44.175503749389662 -163.62432261291502 123.64986896362305 1288.7765825848380 0.0000000000000000 0.0000000000000000 0.0000000000000000 0.0000000000000000 3.0469461531519935 3.0944022587314759 1.0474576840767305 1.0239019746680105 316.13576891279888 414.35596195300491 1.0234541567386419 
-15.581102982555453 -144.05271556217073 134.96470243411241 -15.581102982555452 -144.05271556217073 134.96470243411244 -54.644018243035418 7.1877357219316677e-06 -4.0393289944603277e-05 -1.0024401850836184e-05 16.682070890420100 3.4126728110095428e-09 2.7306146510586160e-09 2.5560607310737282e-06 0.00023054211764132420 -1.2619645940194609e-11 9.7814394069123076e-11 2.0641157960845036e-10 9.5410729085215440e-07 -15.478227839600008 -143.86476845600004 136.06298808800005 1207.7015194609139 0.0000000000000000 0.0000000000000000 0.0000000000000000 0.0000000000000000 3.0469643020260402 3.0944354874179680 1.0474727501369716 1.0236390491346727 354.18524404264491 334.67000851191034 1.0234611200438068 
-44.391959891094046 -163.87159426508953 138.24316109336439 -44.391959891094068 -163.87159426508961 138.24316109336448 -73.338293926112456 2.0686614247722030e-05 -2.2266818742425023e-05 9.0914470684882865e-06 0.0000000000000000 7.1804911322415066e-09 3.5925360186706001e-09 2.4317189164513313e-06 0.00027356653892234549 -1.0436890417706089e-10 1.4474509000086997e-10 -5.1280233191516592e-11 0.0000000000000000 -44.175503749389669 -163.62432261291511 139.28801968872074 2260.0113226803110 0.0000000000000000 0.0000000000000000 0.0000000000000000 0.0000000000000000 3.0471742916418774 3.0948613759045585 1.0476886771446301 1.0236477075007007 394.19795752706290 388.10974451791668 1.0235667700045099 
-5.9467670516474760 -161.69949914352549 129.23371583947826 -5.9467670516474742 -161.69949914352543 129.23371583947826 -135.87424080395255 3.6315815455973248e-05 -1.7983414050690747e-05 2.6356562847674003e-05 -189.92616391628312 2.1527173238444779e-09 3.4980607577228540e-09 2.7734193146500274e-06 0.00047133522009207025 -1.4841502686693600e-10 1.3543446617107615e-10 -5.7437862503901011e-11 0.00052536949512458080 -5.8818733370400009 -161.45872929999999 130.42539591680000 1840.5999298976626 0.0000000000000000 0.0000000000000000 0.0000000000000000 0.0000000000000000 3.0473312535389372 3.0951757477442929 1.0478460886868315 1.0236539766775643 521.43535734901343 492.67302006655132 1.0236435222180229 
-9.8609927716975410 -107.18656392309174 182.66820663127547 -9.8609927716975410 -107.18656392309174 182.66820663127550 -111.41327978741812 3.5236794421494310e-06 1.3934959569810554e-05 -1.0804833990748340e-05 -114.16869684808054 2.6646100187432964e-09 1.1273485756024826e-09 7.4681443074098297e-07 0.00038910856755858578 2.2310086856967263e-11 -5.6620953040388362e-11 6.0605291808434702e-12 0.00039667732648805958 -9.7806680107999995 -107.10896956400003 182.98909712000000 1021.2952016557671 0.0000000000000000 0.0000000000000000 0.0000000000000000 0.0000000000000000 3.0473523024644753 3.0952182127438834 1.0478675039774237 1.0236539766775614 456.80550083022797 451.08391611535615 1.0236539954244022 
-17.676904141978898 -108.71941717458979 193.24539635293451 -17.676904141978898 -108.71941717458978 193.24539635293448 -123.15019700030402 -3.3819776945089417e-05 2.4323907770796003e-05 2.1080823327432908e-05 -133.07431030793185 3.6867577601906723e-09 1.1940049227110450e-09 3.4565435935718369e-07 0.00041808951981206694 5.0955511766605360e-11 -1.0435593977856574e-10 -3.2345738406440880e-11 0.00050831890723025328 -17.565766725200003 -108.63723447200002 193.39391677600000 1230.2822850381203 0.0000000000000000 0.0000000000000000 0.0000000000000000 0.0000000000000000 3.0473493145354023 3.0952121412385099 1.0478644198649782 1.0236539766775627 489.24638496851355 486.54816735861948 1.0236524893915957 
-44.391959891094046 -119.66812642816478 170.03759724582076 -44.391959891093983 -119.66812642816494 170.03759724582062 -123.53441437677927 -4.4589007563530286e-07 1.4515701139889976e-05 3.1729158337655189e-05 0.0000000000000000 7.1804911322415066e-09 1.6701620364489851e-09 1.2258543535814681e-06 0.00039330008253610422 -2.1903727126380528e-11 -6.8183765234201895e-11 -1.3092211000234523e-10 0.0000000000000000 -44.175503749389591 -119.55317056945772 170.56432113891603 1872.3464537223574 0.0000000000000000 0.0000000000000000 0.0000000000000000 0.0000000000000000 3.0473665741051903 3.0952469356306560 1.0478819559843755 1.0236539766775634 479.85166092765149 487.93102323400683 1.0236610569279536 
-9.4103882316832337 -124.52660738446733 188.64107404009113 -9.4103882316832337 -124.52660738446731 188.64107404009113 -117.80465601207128 7.2035640372655269e-06 -6.0781561366315127e-05 -1.5585312690503086e-05 -119.09180273717958 2.6056820451314518e-09 1.8814430291502759e-09 5.2028206365406504e-07 0.00039581417098470109 1.5803450460722541e-11 1.8795464543110526e-10 1.2466769720789651e-11 0.00036937112458854544 -9.3318398883999993 -124.39710846400000 188.86462832000004 1016.3527334425750 0.0000000000000000 0.0000000000000000 0.0000000000000000 0.0000000000000000 3.0473480662224217 3.0952096176003923 1.0478631444114266 1.0236539766775616 487.49563061110990 487.50225385760308 1.0236518665899175 
-44.391959891094046 -163.87159426508953 106.44872494090806 -44.391959891094068 -163.87159426508958 106.44872494090806 -95.204782151139412 -1.4095743732296245e-05 -0.00012104121757245119 -5.9701019675248135e-05 1.8579018556812352e-18 7.1804911322415066e-09 3.5925360186706005e-09 3.6375835059665467e-06 0.00036232070144150830 -2.5207472367656218e-11 6.1352119920089817e-10 2.0147913139662954e-10 -2.8255847303001954e-19 -44.175503749389662 -163.62432261291499 108.01171823852535 1450.3671205666894 0.0000000000000000 0.0000000000000000 0.0000000000000000 0.0000000000000000 3.0483708043389308 3.0972860993022957 1.0489170292703986 1.0241101195665570 355.31022281435315 467.70214940592280 1.0241656589772523 
-61.437308765060557 -161.19410289918903 84.075181371234720 -61.437308765060585 -161.19410289918909 84.075181371234734 -261.50198806113326 -5.2843587294299762e-05 -0.00019310069418116419 -4.1122430117201584e-05 -137.94737523953518 9.4096446051628035e-09 3.4760930522903521e-09 4.4861427719311564e-06 0.00084665362604691098 1.7743224153430964e-10 8.1286530788966921e-10 2.7006764871688592e-10 0.00085645317954238613 -61.153654769600031 -160.95484587600001 86.002782780800032 1645.6757988676138 0.0000000000000000 0.0000000000000000 0.0000000000000000 0.0000000000000000 3.0437661515617429 3.0880001492820046 1.0442354426561056 1.0228234624779999 740.06349832835429 729.34715344502899 1.0218786695973205 
-44.449381020538418 -168.26202418431967 81.303621910456954 -44.449381020538418 -168.26202418431967 81.303621910456954 -381.02219364570669 6.1551315525968628e-05 -0.00028810892866941928 -4.8514968591610167e-05 -289.91419080817838 7.1880015134473396e-09 3.7834626265276228e-09 4.5912594499597503e-06 0.0011166221293383799 -1.3021706763204303e-10 1.0693581763776887e-09 2.9567820377814647e-10 0.0012620128340198216 -44.232698507600013 -168.00161050399998 83.276389748800028 1737.4139093181343 0.0000000000000000 0.0000000000000000 0.0000000000000000 0.0000000000000000 3.0476383075813227 3.0957916365069020 1.0481549244210362 1.0236539766775619 942.54164141112426 923.65103198631869 1.0237946539957523 
-44.391959891094046 -185.97332818355190 106.44872494090806 -44.391959891094068 -185.97332818355179 106.44872494090808 -344.07358389791068 5.6796216555875191e-06 -9.4042113428700398e-05 -0.00023273025044636715 -9.8936924381416007e-20 7.1804911322415066e-09 4.5537158210873222e-09 3.6375835059665462e-06 0.0010551186195342580 1.2451674968047184e-12 4.7669509055314267e-10 3.2518615305584905e-10 1.4824240566353117e-20 -44.175503749389676 -185.65989863464350 108.01171823852533 1616.4576808433910 0.0000000000000000 0.0000000000000000 0.0000000000000000 0.0000000000000000 3.0463722484240212 3.0932377495548744 1.0468669880097492 1.0234618608648582 891.81747067621075 907.92346318213117 1.0231650614332251 
-87.721218195383727 -141.76986034662718 138.24316109336439 -87.721218195383713 -141.76986034662707 138.24316109336448 -115.63054381937823 -6.2192444098485781e-06 -1.2632535062464315e-05 -2.9698453461128026e-06 0.0000000000000000 1.2846989541626108e-08 2.6313561607427260e-09 2.4317189164513313e-06 0.00040379004844563992 7.3334992762483295e-11 7.0256145644791077e-11 -2.3194611155540773e-11 0.0000000000000000 -87.333945182495100 -141.58874659118649 139.28801968872074 1877.7986991733408 0.0000000000000000 0.0000000000000000 0.0000000000000000 0.0000000000000000 3.0469285488350790 3.0943574507595928 1.0474304286705154 1.0235052160783584 475.78488456773039 632.30651118712183 1.0234403673243582 
-66.056589043238887 -163.87159426508953 138.24316109336439 -66.056589043238958 -163.87159426508964 138.24316109336448 -98.726200480505668 -3.2991357313148101e-05 -1.1099778121634904e-06 1.9762063268060816e-05 1.1119842008118091e-19 1.0013740350811595e-08 3.5925360186705993e-09 2.4317189164513309e-06 0.00033982953465045790 1.6783943285759886e-10 6.3561981938002702e-11 -1.7343315460277457e-10 -1.7965802269429299e-20 -65.754724465942374 -163.62432261291517 139.28801968872077 2018.1238718776010 0.0000000000000000 0.0000000000000000 0.0000000000000000 0.0000000000000000 3.0467006157860519 3.0938991752929441 1.0472000757094400 1.0235430673529211 433.58782112575818 418.29371654897244 1.0233281694105261 
-87.721218195383727 -163.87159426508953 122.34594301713624 -87.721218195383713 -163.87159426508961 122.34594301713618 -153.98278946304171 -5.1009407365003857e-05 -3.0985380807580025e-05 1.9472814547497591e-06 0.0000000000000000 1.2846989541626107e-08 3.5925360186706001e-09 3.0346512112089385e-06 0.00071608527196127217 -3.6179271879995748e-12 1.2534969467688368e-10 5.6133320224148157e-10 0.0000000000000000 -87.333945182495114 -163.62432261291505 123.64986896362312 1549.0027140339625 0.0000000000000000 0.0000000000000000 0.0000000000000000 0.0000000000000000 3.0484601258855122 3.0974478358482842 1.0489893432401194 1.0239036534950592 527.57222250830080 528.44190143482763 1.0242013590083312 
-87.721218195383727 -141.76986034662718 122.34594301713624 -87.721218195383713 -141.76986034662707 122.34594301713616 -84.472250230029488 -4.9275539479606914e-05 -2.7125572172372879e-05 5.4981276201687133e-05 0.0000000000000000 1.2846989541626108e-08 2.6313561607427260e-09 3.0346512112089385e-06 0.00032076694009080088 2.6228934074441508e-10 1.7659455607278050e-10 -6.7526587950940273e-11 0.0000000000000000 -87.333945182495086 -141.58874659118649 123.64986896362313 1389.1126189879024 0.0000000000000000 0.0000000000000000 0.0000000000000000 0.0000000000000000 3.0468317497457065 3.0941586436605486 1.0473283855205151 1.0236424092462491 388.08833199522684 386.31857449532635 1.0233909042843312 
-45.418135560534367 -110.42098690705859 46.303986830416946 -45.418135560534367 -110.42098690705861 46.303986830416946 -468.84162212808366 8.8847247249947836e-05 3.4212595873721232e-05 -0.00010820043477897296 -483.14471144705635 7.3146960849479478e-09 1.2680076710847035e-09 5.9186872940486523e-06 0.0014385774401515941 -1.7183567723815587e-10 3.6914774669520351e-11 3.8459831684858622e-10 0.0014542809613177605 -45.197633928000002 -110.33371083599998 48.847122559999995 1069.0094105005942 0.0000000000000000 0.0000000000000000 0.0000000000000000 0.0000000000000000 3.0473536079274344 3.0952208096066935 1.0478687952270622 1.0236539766775630 1123.1561311412038 1123.1394869407195 1.0236546259778088 
-57.391336635895911 -98.883999532571735 43.639478489818970 -57.391336635895883 -98.883999532571721 43.639478489818984 -488.81910844367474 5.7524201874986820e-06 4.1565643172402164e-05 -9.0976530079504858e-05 -446.41794608581762 8.8805239134570613e-09 7.6626835432413998e-10 6.0197438536135905e-06 0.0015589997351530339 5.7760496249778745e-11 -5.7584239148895031e-11 2.7801698700001601e-10 0.0016820417852801634 -57.123633070400032 -98.831257531200038 46.226036100800002 1475.5774262919704 0.0000000000000000 0.0000000000000000 0.0000000000000000 0.0000000000000000 3.0473524180697407 3.0952183935074951 1.0478675688020689 1.0236539766775619 1121.1003331085888 1120.9536402194246 1.0236540277843320 
-60.419281754677186 -105.66001870966568 54.857153275716506 -60.419281754677179 -105.66001870966565 54.857153275716513 -322.36411295283739 2.4824899983361823e-05 0.00020326279941603557 -0.00020825418200411740 49.682548035024752 9.2765109344083996e-09 1.0609581269083179e-09 5.5942921637353038e-06 0.0010384791987156558 1.0142560708896966e-10 -5.5689797782127689e-10 9.3599745072219742e-10 0.0016170467844306982 -60.139641125599979 -105.58699381199996 57.260903223199996 1724.6135661994952 0.0000000000000000 0.0000000000000000 0.0000000000000000 0.0000000000000000 3.0473484504799320 3.0952104236628832 1.0478635665348472 1.0236539766775625 825.72336975864528 826.67610286183776 1.0236520744490822 
-19.524441820246302 -88.136627884985174 55.302585618893673 -19.524441820246299 -88.136627884985188 55.302585618893666 -391.18578463665534 -7.7826025302382266e-06 -4.9785273250290266e-05 -0.00019219136926058479 -402.38491745463398 3.9283746949836384e-09 2.9887201047351653e-10 5.5773982921003551e-06 0.0012270845428766709 -5.1025883880093281e-11 3.8503864232395550e-11 2.8696535110371698e-10 0.0012976619693872932 -19.406020858399991 -88.116056368799974 57.699076624800000 1439.6451283969650 0.0000000000000000 0.0000000000000000 0.0000000000000000 0.0000000000000000 3.0473504565924423 3.0952144670352970 1.0478656038769307 1.0236539766775627 981.98355876145922 982.21164253434426 1.0236530683571294 
-59.050782495664329 -178.88052355559330 76.707513983290326 -59.050782495664315 -178.88052355559330 76.707513983290326 -614.64180548725540 -1.1868242772700625e-05 -5.1264748450719555e-05 -7.4168463094123919e-05 -725.81381249309720 9.0975369043677645e-09 4.2452548976168450e-09 4.7655756043596398e-06 0.0016783989332819847 3.1181255321469150e-11 9.6060351226013846e-11 3.7136829529569446e-10 0.0023550672279321694 -58.776536899199989 -178.58832514800000 78.755181813599989 1584.4809985467919 0.0000000000000000 0.0000000000000000 0.0000000000000000 0.0000000000000000 3.0482280724678579 3.0969889697163970 1.0487625885331657 1.0236539766775623 1426.8980284196330 1428.1120893508098 1.0240916431505271 
-74.799709258842896 -185.25408990369311 70.069930765479384 -74.799709258842896 -185.25408990369309 70.069930765479384 -597.22084038728337 0.00013091920169433364 -0.00012720630629785572 -6.4353935533819492e-06 -588.64188947903142 1.1157144610973725e-08 4.5224299582979910e-09 5.0173185890400873e-06 0.0016750289806927679 -4.8163545741585534e-10 3.6797155770550220e-10 2.1419163086114701e-11 0.0015749008792827156 -74.463376691600018 -184.94281327599995 72.225767276240006 1182.3928641350060 0.0000000000000000 0.0000000000000000 0.0000000000000000 0.0000000000000000 3.0475166445806749 3.0955444123805038 1.0480293338944449 1.0236539766775623 1310.6162507398149 1311.3020611907034 1.0237329829601227 
-70.054398440594468 -211.97974081764158 84.674431980085160 -70.054398440594468 -211.97974081764158 84.674431980085160 -629.65311783005336 1.6325022424711868e-05 1.6374888020108798e-05 -8.3415091141537893e-05 -655.17170854433641 1.0536570407837509e-08 5.6847084539679571e-09 4.4634150486722035e-06 0.0017044694684305521 -6.9658456324661084e-11 -3.7689942599707023e-12 1.4357283460286277e-10 0.0017860621483183380 -69.736773305200003 -211.58846536000007 86.592267764799999 1391.6778601551057 0.0000000000000000 0.0000000000000000 0.0000000000000000 0.0000000000000000 3.0472438769890942 3.0950050935356299 1.0477628439537077 1.0236539766775623 1445.7089434050722 1446.2732835778181 1.0236029938290108 
-87.199058600286051 -207.65223840059977 88.451850754733229 -87.199058600286065 -207.65223840059977 88.451850754733201 -527.35345274253746 0.00012895653879381547 -6.8130182267012382e-05 -6.1257746453311258e-05 -593.99117566524740 1.2778703775695455e-08 5.4965097751047409e-09 4.3201492534450381e-06 0.0014907198079255367 -4.5142237572086853e-10 2.6071212663409150e-10 3.2034140125068193e-11 0.0016432821459625008 -86.813844096400004 -207.27391660800001 90.308128229600001 1955.0875990986240 0.0000000000000000 0.0000000000000000 0.0000000000000000 0.0000000000000000 3.0480084808807044 3.0965452261238768 1.0485384136041629 1.0236539766775621 1243.8810033561365 1246.0094270509019 1.0239821091999082 
-74.709590196596551 -212.97961192696587 98.972250832298911 -74.709590196596551 -212.97961192696590 98.972250832298911 -525.13404742157877 -2.8757912898354095e-05 1.7068469767379527e-05 5.5487356590976717e-05 -600.73699499440511 1.1145363923437122e-08 5.7282021070914624e-09 3.9211430227226174e-06 0.0014322171903857403 4.0587130656363987e-11 -4.3739001792591209e-11 2.3579469528631382e-11 0.0015542919924303139 -74.373612905599998 -212.58534351999998 100.65708370800000 988.41240310934302 0.0000000000000000 0.0000000000000000 0.0000000000000000 0.0000000000000000 3.0476162130676050 3.0957598295919246 1.0481452996615581 1.0236539766775619 1353.4053929410140 1354.6304213744088 1.0237901064817427 
-66.056589043238887 -185.97332818355190 106.44872494090806 -66.056589043238958 -185.97332818355176 106.44872494090809 -344.94472954191485 1.4398966402592567e-05 -0.00012920568439952441 -0.00014012090937950343 -2.4608110332207931e-19 1.0013740350811595e-08 4.5537158210873230e-09 3.6375835059665471e-06 0.0010946337358673178 -6.3640727689403056e-11 4.7090712033357503e-10 1.7346613242707729e-10 2.9539477407695786e-20 -65.754724465942374 -185.65989863464350 108.01171823852535 1808.0980320372519 0.0000000000000000 0.0000000000000000 0.0000000000000000 0.0000000000000000 3.0460583808684270 3.0925779253127281 1.0465208138978495 1.0233311527622917 865.50178603364384 860.68404005100365 1.0229948628628922 
-83.833303122624599 -208.74221088954968 107.47868399189750 -83.833303122624599 -208.74221088954965 107.47868399189748 -386.86998307639124 0.00016713111346441451 -0.00011489226855378622 -0.00022719722722168393 -374.40399838660238 1.2338537150324846e-08 5.5439313972893700e-09 3.5985203483690498e-06 0.0011509383207795060 -5.8223138342896019e-10 2.9962505599889511e-10 3.0142734773558635e-10 0.0010882014355708296 -83.461357431600007 -208.36062644399999 109.02489266960001 1287.0831768928649 0.0000000000000000 0.0000000000000000 0.0000000000000000 0.0000000000000000 3.0479199332541187 3.0963703682296808 1.0484521242710532 1.0236539766775621 968.96667962419531 976.52242385117904 1.0239397073645244 
-41.764940419511468 -130.19273197028247 63.491615051381828 -41.764940419511461 -130.19273197028247 63.491615051381821 -262.95811123691385 7.6398304105879865e-05 -8.7221970820285860e-06 -7.1589879234187594e-05 -292.16798504448491 6.8369336164719741e-09 2.1278541428859650e-09 5.2668137442424276e-06 0.00082520936435462214 -2.5513587451283031e-10 1.3009172655377401e-10 3.0357957781511257e-10 0.0011064852272289153 -41.558840772800004 -130.04627243999997 65.754654395919971 2180.9238908936368 0.0000000000000000 0.0000000000000000 0.0000000000000000 0.0000000000000000 3.0473635871312577 3.0952410293017443 1.0478790365991908 1.0236539766775623 769.18399690970193 770.63345460640096 1.0236596135915585 
-22.919904749149026 -134.60478092745353 53.479797861718296 -22.919904749149026 -134.60478092745350 53.479797861718289 -420.55431426045499 1.9226732554881872e-05 1.7121408214264323e-05 -2.3090472397139748e-05 -436.52194138324364 4.3724238257825121e-09 2.3197296583621352e-09 5.6465309885567194e-06 0.0012741538696834167 -4.2347794636981560e-11 -2.3407136620206534e-11 6.4607778577900591e-11 0.0012547955859443475 -22.788097858800000 -134.44511465599999 55.905993737599999 935.86986824075086 0.0000000000000000 0.0000000000000000 0.0000000000000000 0.0000000000000000 3.0473476837968603 3.0952088224931193 1.0478627317610141 1.0236539766775616 1016.0065507576071 1015.4998377645331 1.0236516724350635 
-11.111022148267363 -103.66950317357011 59.785201616138416 -11.111022148267359 -103.66950317357011 59.785201616138437 -388.29034899433867 -4.1687813679518461e-06 -6.0708513310494739e-05 -0.00014091143715846860 -344.00699205356864 2.8280857308771168e-09 9.7439337154447969e-10 5.4073865358716944e-06 0.0011846963552028481 -7.1318015008005574e-11 1.1952683484672378e-10 2.1786365231158051e-10 0.0011184717393886285 -11.025769398400001 -103.60243655599999 62.108642139439993 1284.9349949311236 0.0000000000000000 0.0000000000000000 0.0000000000000000 0.0000000000000000 3.0473507568203497 3.0952150836134327 1.0478659204331513 1.0236539766775623 997.42627676023994 997.97353548619662 1.0236532265740326 
-29.150625044591202 -140.94294694249251 67.879718209634348 -29.150625044591202 -140.94294694249251 67.879718209634348 -298.82271029933537 3.7348529160869679e-05 3.3844619334998241e-05 -9.1722336830467083e-05 -295.37834300509252 5.1872646733563954e-09 2.5953857119009886e-09 5.1003865682019986e-06 0.00091017762964403621 -1.0074116596667785e-10 2.8387896999601549e-12 3.2898645104805957e-10 0.0012409639345909041 -28.994254794799993 -140.76430841599998 70.071247290159988 2176.9829965296321 0.0000000000000000 0.0000000000000000 0.0000000000000000 0.0000000000000000 3.0473567841970297 3.0952272967532903 1.0478721064313949 1.0236539766775623 824.90417373210323 823.99581513442172 1.0236562225595291 
-103.85727885706494 -194.39255407359400 92.245969179075345 -103.85727885706493 -194.39255407359403 92.245969179075345 -374.21030026584663 1.2428286858121723e-05 -3.6724236924723766e-05 -0.00012636882705288684 -469.87120588516331 1.4957226415757141e-08 4.9198811413742041e-09 4.1762500719855211e-06 0.0011664329332748006 -5.4487504558584713e-11 7.2740675113639747e-11 2.7221980891815514e-10 0.0011325879190654637 -103.40639267600000 -194.05392295999994 94.040416199999996 2662.2783756828549 0.0000000000000000 0.0000000000000000 0.0000000000000000 0.0000000000000000 3.0474993496044473 3.0955216826946765 1.0480239896966597 1.0236539766775621 954.15699272322081 954.97661430638504 1.0237306302351945 
-82.876675202986235 -162.54468209535270 75.738433176106284 -82.876675202986220 -162.54468209535264 75.738433176106312 -422.79614445039840 -5.1592787685557889e-05 -4.1249219727680723e-05 -6.6850277446492686e-05 -483.82199189037038 1.2213434721908278e-08 3.5348244054045352e-09 4.8023298289123773e-06 0.0012921898880786555 1.8288503209332552e-10 1.4086301962358774e-10 3.9047181669294503e-10 0.0017982945728440467 -82.508500824799995 -162.30138233600007 77.801893530400037 2229.3857910936085 0.0000000000000000 0.0000000000000000 0.0000000000000000 0.0000000000000000 3.0479860129667014 3.0964997771328062 1.0485154293230030 1.0236539766775623 1035.2233929078648 1036.2675808891645 1.0239708665569358 
-28.143495067987779 -125.19355990778043 126.32024753619328 -28.143495067987796 -125.19355990778048 126.32024753619319 -27.424833210411592 1.0747960984568674e-05 -4.7447831809809618e-06 2.8016222309677432e-05 -7.0763239019539833e-20 5.0555553077202831e-09 1.9104501036704136e-09 2.8839181509532357e-06 0.00011121798888634155 -3.5198006887059898e-11 1.4325742705788382e-11 -1.3923838465559781e-10 9.6574928658093050e-21 -27.991095225219734 -125.06206457489009 127.55940664489751 1124.7619503421174 0.0000000000000000 0.0000000000000000 0.0000000000000000 0.0000000000000000 3.0474108497905763 3.0953355848925388 1.0479263204354330 1.0237190114949168 288.82614699965490 265.94288662971309 1.0236826514554096 