# For a description of the Tecplot format see the Tecplot User's guide.
#
Variables=x,y,z,s_u,s_v,s_w,s_p,mono_f_vel_u,mono_f_vel_v,mono_f_vel_w,const,u_nu,v_nu,w_nu,p_nu,x_nu,y_nu,z_nu,const,u_ref,v_ref,w_ref,vol_ref,x_ref,y_ref,z_ref,const,I1,I2,I3,J,p1,p2,p3
Zone f=fepoint, n=356, e=1130, et=brick, c=black
-65.8925 -97.5399 91.5475 -65.892506105368554 -97.539879188051188 91.547548404822507 -55.172939163646959 -8.5259117234273292e-06 1.8521459908715411e-05 1.3869153718337456e-05 -3.8696072977439701e-20 6.0163053358652796e-10 4.2608722106152186e-11 2.5369766265548327e-07 2.1767019546366899e-05 5.6879560154865163e-12 -1.0108993417418228e-11 7.3757014805217428e-13 7.5038312747836926e-21 -65.754724465942431 -97.517594547729473 92.373562431030237 2074.8615187338191 0.0000000000000000 0.0000000000000000 0.0000000000000000 0.0000000000000000 3.0213873376738305 3.0428799386277192 1.0214927493379011 1.0107141671560280 185.28327470723471 203.74010010524486 1.0106892496225084 
-75.902937677356576 -130.62778827177448 77.957156966850263 -75.902937677356562 -130.62778827177451 77.957156966850263 -58.556283291742375 -4.9613636820318511e-05 -1.3061281167410617e-05 1.4324653152350502e-05 -7.2493533340587950 6.8045541076755523e-10 1.2922546366311849e-10 2.8481221026055431e-07 2.3043877042828532e-05 2.9083178009471416e-11 1.0590963396343830e-11 -1.1880998379174607e-11 -3.1906911224654694e-05 -75.747104543999981 -130.56019973999997 78.884476808000016 2128.8259272129790 0.0000000000000000 0.0000000000000000 0.0000000000000000 0.0000000000000000 3.0214172746052843 3.0429403729592019 1.0215232483027812 1.0107141671560280 194.36590469578175 179.55713004472312 1.0107043414515666 
-63.555842751270269 -121.85018842560696 70.255903175462876 -63.555842751270276 -121.85018842560694 70.255903175462876 -38.339756741755039 3.6012995186974509e-05 -1.2456949579008456e-05 1.3040788062403564e-05 -1.1228240820852859 5.8323780180447038e-10 1.0625678115161463e-10 3.0244386528543998e-07 1.6328938739320984e-05 -2.0565163415695215e-11 2.1625298459860144e-12 -7.1955632613487390e-12 -5.1337281520925122e-06 -63.422274742800013 -121.79461816400000 71.240629883439979 1237.7701333319521 0.0000000000000000 0.0000000000000000 0.0000000000000000 0.0000000000000000 3.0214751244284148 3.0430562134802197 1.0215812386960865 1.0107141671560269 145.75703373548097 145.64427030067608 1.0107330153848197 
-56.272752767571312 -132.14921885914748 75.697250474817636 -56.272752767571312 -132.14921885914745 75.697250474817650 -40.280310869518651 4.7695722747419641e-05 1.1824036790374865e-06 -2.7122531282297699e-05 -49.987248752731666 5.2589060536845089e-10 1.3320999858734692e-10 2.8998615841935305e-07 1.6246496196473056e-05 -2.2908451371489568e-11 8.3920562182741524e-12 1.5533321495928121e-11 3.0727206229094483e-05 -56.152318124399997 -132.07954718800002 76.641416164000006 2090.5778096190215 0.0000000000000000 0.0000000000000000 0.0000000000000000 0.0000000000000000 3.0213423156682393 3.0427902836735581 1.0214481181712309 1.0107141671560278 178.52277205828253 160.33172977356350 1.0106671771515747 
-123.13887791904955 -110.42733344599998 88.357633031722969 -123.13887791904952 -110.42733344599995 88.357633031722983 -153.07659636010629 -4.6925301583991193e-06 2.0746737379682994e-06 -3.2764722361062087e-05 -164.87043283863650 1.0524037162562561e-09 7.6354006450785050e-11 2.6100082006763614e-07 5.1786974672454313e-05 -2.1914100792309447e-14 -2.3752339601327933e-12 1.0942282604356848e-11 5.4943407568576875e-05 -122.89786571200003 -110.38740333199999 89.207425400000020 2092.2379289329847 0.0000000000000000 0.0000000000000000 0.0000000000000000 0.0000000000000000 3.0214524445610533 3.0430108629871091 1.0215585684401025 1.0107141671560282 402.29931711396375 399.60512611070550 1.0107218082069591 
-123.01059646116298 -128.56888455338705 92.664251089160629 -123.01059646116298 -128.56888455338705 92.664251089160629 -145.55440668512617 -4.7062094536788709e-06 -2.2449323723282513e-05 -5.1487524353941367e-05 -188.47520530492159 1.0513906377462856e-09 1.2384565595269237e-10 2.5114103752166272e-07 5.0481641827540713e-05 -2.4861285127404355e-13 1.2556758335919915e-11 4.5565630590783895e-12 5.3429526276557211e-05 -122.76981557999994 -128.50411506799998 93.481940963999989 2295.0048277193882 0.0000000000000000 0.0000000000000000 0.0000000000000000 0.0000000000000000 3.0214648613614608 3.0430358305984107 1.0215711194945756 1.0107141671560278 395.47597552094970 395.98395673299450 1.0107280024281289 
-87.510710244163491 -119.60566763819986 107.30314998755712 -87.510710244163462 -119.60566763819995 107.30314998755708 -68.908745397076530 -3.3230500850594239e-05 1.4992359175950881e-05 -3.3376810939896824e-05 -4.3143463178752580e-20 7.7185871236173920e-10 1.0038181397220569e-10 2.1762598856334137e-07 2.6836804572707888e-05 1.8101808337584338e-11 -9.0957914672970801e-12 9.2540371014287667e-12 8.1536701750177229e-21 -87.333945182495114 -119.55317056945796 108.01171823852533 1853.2119812635015 0.0000000000000000 0.0000000000000000 0.0000000000000000 0.0000000000000000 3.0213243749888368 3.0427536149163923 1.0214293877251956 1.0107141671560285 225.39322028930684 234.45937218817673 1.0106578975563101 
-122.13601713198219 -119.00096045301022 106.32177380202809 -122.13601713198217 -119.00096045301021 106.32177380202810 -86.485754263110493 -6.5750451788587177e-06 2.5110590554822395e-05 -7.4393176432907513e-05 -82.765531336054224 1.0445136387760012e-09 9.8788921487624735e-11 2.1987279841262361e-07 3.1993929800108025e-05 -6.8254269806938254e-13 -1.0765032130226918e-11 1.2609831867399434e-11 2.7506338050520828e-05 -121.89681335200000 -118.94929134799999 107.03765745040002 1571.7251237143605 0.0000000000000000 0.0000000000000000 0.0000000000000000 0.0000000000000000 3.0214215372065385 3.0429486317462486 1.0215272434327487 1.0107141671560280 259.08272661500177 258.66357491206003 1.0107063004214665 
-44.274301966573660 -163.73724453849721 123.05874644972440 -44.274301966573638 -163.73724453849721 123.05874644972440 -28.997848943093434 2.7491868967093531e-05 -9.5535837978623285e-06 5.0586904657504182e-07 0.0000000000000000 4.3140944636088651e-10 2.1589979803948722e-10 1.8155430936417358e-07 1.3283152401749460e-05 -1.9936928854159582e-11 -6.4011357426976971e-12 -8.1380988807435827e-12 0.0000000000000000 -44.175503749389662 -163.62432261291502 123.64986896362305 1288.7765825848380 0.0000000000000000 0.0000000000000000 0.0000000000000000 0.0000000000000000 3.0211733442133966 3.0424506207682160 1.0212774214856633 1.0108468449154571 152.04545804317780 216.74494757487079 1.0105828209750771 
-15.525183683109535 -143.95059854994631 135.56509065873720 -15.525183683109534 -143.95059854994631 135.56509065873723 -32.826801799680347 4.1735035583971029e-06 -2.2125180228648316e-05 -4.4310557644496388e-06 4.2596541866036892 2.0503658146320267e-10 1.6412635139850809e-10 1.5292162602875692e-07 1.8745655660781152e-05 3.3567204306925569e-12 -5.0195676912387874e-12 3.3604923887752765e-11 -7.1351766007522437e-06 -15.478227839600008 -143.86476845600004 136.06298808800005 1207.7015194609139 0.0000000000000000 0.0000000000000000 0.0000000000000000 0.0000000000000000 3.0211872140742591 3.0424781328335162 1.0212910639119708 1.0107043603241372 173.00246240448493 165.04289725661150 1.0105894587629862 
-44.274301966573660 -163.73724453849721 138.81434291189166 -44.274301966573624 -163.73724453849721 138.81434291189171 -44.800394056538103 1.1194208593600800e-05 -1.2869999753195909e-05 4.8752261210803789e-06 0.0000000000000000 4.3140944636088641e-10 2.1589979803948722e-10 1.4548264437586056e-07 1.7432551481284794e-05 -7.5923099994492435e-12 1.0068982417742938e-11 -4.7799236195895035e-12 0.0000000000000000 -44.175503749389669 -163.62432261291511 139.28801968872074 2260.0113226803110 0.0000000000000000 0.0000000000000000 0.0000000000000000 0.0000000000000000 3.0213363980643364 3.0427783338685548 1.0214420850452870 1.0107100727195275 198.32090415523382 194.13263262834872 1.0106642192053956 
-5.9114931170988285 -161.56868203462980 129.88515900766623 -5.9114931170988285 -161.56868203462983 129.88515900766626 -80.733071881119898 2.0586346977276906e-05 -1.2392267856842195e-05 1.3109114114619249e-05 -107.72432150371993 1.2933815476956492e-10 2.1023460750058123e-10 1.6592557572359110e-07 3.0248436281359447e-05 -1.2780372229988948e-11 9.1711950830689222e-12 -1.7735473352331789e-12 3.9918616297075622e-05 -5.8818733370400009 -161.45872929999999 130.42539591680000 1840.5999298976626 0.0000000000000000 0.0000000000000000 0.0000000000000000 0.0000000000000000 3.0214367276233456 3.0429793826127405 1.0215428052569921 1.0107141671560274 271.05072620688725 259.55833986174173 1.0107140044892962 
-9.8173310646173721 -107.14440469926885 182.84362444734396 -9.8173310646173721 -107.14440469926886 182.84362444734396 -67.768254365024660 5.8959423524175738e-07 7.6372537679227808e-06 -3.4608510753915828e-06 -69.641034035405980 1.6009292502783270e-10 6.7758187949351623e-11 4.4679733024466379e-08 2.3591434159856851e-05 1.7703312970106595e-12 -5.0160441418054893e-12 9.6905779167811436e-13 2.5925442126976299e-05 -9.7806680107999995 -107.10896956400003 182.98909712000000 1021.2952016557671 0.0000000000000000 0.0000000000000000 0.0000000000000000 0.0000000000000000 3.0214370089450093 3.0429798458848483 1.0215429865847356 1.0107141671560262 237.74545667702679 236.25884344581755 1.0107140970481530 
-17.616493761881578 -108.67476497314874 193.32658644479193 -17.616493761881575 -108.67476497314874 193.32658644479193 -74.833704936194010 -1.7140471986808427e-05 1.2096563450823690e-05 1.0391704895270725e-05 -80.653127933169031 2.2150414488719683e-10 7.1759209685495762e-11 2.0679482570784558e-08 2.5114988171051839e-05 1.6172714983204377e-12 -7.7906961006603786e-12 3.4013629243934472e-13 3.2858358451656516e-05 -17.565766725200003 -108.63723447200002 193.39391677600000 1230.2822850381203 0.0000000000000000 0.0000000000000000 0.0000000000000000 0.0000000000000000 3.0214350035756623 3.0429758079636642 1.0215409539639533 1.0107141671560267 256.47107602796120 255.17241565009846 1.0107130915902434 
-44.274301966573660 -119.60566763819986 170.32553583622621 -44.274301966573617 -119.60566763819971 170.32553583622590 -73.802264755974804 5.3706043363307873e-07 8.3414263601472984e-06 1.7479224692382762e-05 0.0000000000000000 4.3140944636088641e-10 1.0038181397220569e-10 7.3339285755480432e-08 2.1308864998125095e-05 -3.9766275213009400e-12 -2.4839335194778096e-12 -1.5860646476642706e-11 0.0000000000000000 -44.175503749389591 -119.55317056945772 170.56432113891603 1872.3464537223574 0.0000000000000000 0.0000000000000000 0.0000000000000000 0.0000000000000000 3.0214473060723601 3.0430004961073047 1.0215533397793779 1.0107141671560278 248.47202881986237 253.28452078644440 1.0107192200786319 
-9.3676921225663978 -124.45624693511623 188.76328209839241 -9.3676921225663978 -124.45624693511624 188.76328209839241 -70.961466912626491 2.5351490772618587e-06 -2.8579716737290793e-05 -5.3702680005380930e-06 -71.371416000407422 1.5655294768879282e-10 1.1307393910087170e-10 3.1126961674843301e-08 2.3946664663502806e-05 -3.5589035061347844e-14 1.0305017855769078e-11 1.3723530151203236e-12 2.3152223645731818e-05 -9.3318398883999993 -124.39710846400000 188.86462832000004 1016.3527334425750 0.0000000000000000 0.0000000000000000 0.0000000000000000 0.0000000000000000 3.0214341769406734 3.0429741480247117 1.0215401206462389 1.0107141671560256 252.33183824585905 251.44666518303760 1.0107126793649990 
-44.274301966573660 -163.73724453849721 107.30314998755712 -44.274301966573631 -163.73724453849721 107.30314998755709 -57.766332356896058 -4.7028548300991039e-06 -6.5959997472775353e-05 -3.6892926097009021e-05 7.3583499841288651e-19 4.3140944636088646e-10 2.1589979803948720e-10 2.1762598856334137e-07 2.4006813135743766e-05 -4.9016794991057457e-12 4.6640991807425165e-11 1.4024413672864900e-11 -1.4398315584635345e-19 -44.175503749389662 -163.62432261291499 108.01171823852535 1450.3671205666894 0.0000000000000000 0.0000000000000000 0.0000000000000000 0.0000000000000000 3.0220681904738407 3.0442511732550916 1.0221831505026204 1.0109769858277422 183.30291677109665 223.74198021206851 1.0110304903497598 
-61.283124457214114 -161.06410774864077 85.128922885545336 -61.283124457214150 -161.06410774864074 85.128922885545322 -147.84724646657023 -2.7644355529312392e-05 -0.00010144095152238212 -2.1756626495036092e-05 -89.093083410958130 5.6533917477952233e-10 2.0890159047048934e-10 2.6839280020674039e-07 5.9176299311696966e-05 1.1901849620792082e-11 5.6767503008243528e-11 1.8912304921600014e-11 6.3474903438543305e-05 -61.153654769600031 -160.95484587600001 86.002782780800032 1645.6757988676138 0.0000000000000000 0.0000000000000000 0.0000000000000000 0.0000000000000000 3.0195873662698820 3.0392701385634959 1.0196829067065498 1.0102799933285902 389.92445183335184 387.40778409919500 1.0097935595141909 
-44.331600048599022 -168.12053401978127 82.382054079599058 -44.331600048599022 -168.12053401978125 82.382054079599058 -209.63417170638007 2.8619209602356689e-05 -0.00014565688242795628 -2.4308266448833281e-05 -160.47945828669074 4.3186165407660404e-10 2.2738599891880540e-10 2.7468161900578986e-07 7.1598419634622570e-05 -4.3278829594717605e-12 6.5284477878142679e-11 1.8158759650798286e-11 8.0951399685766164e-05 -44.232698507600013 -168.00161050399998 83.276389748800028 1737.4139093181343 0.0000000000000000 0.0000000000000000 0.0000000000000000 0.0000000000000000 3.0215696391243365 3.0432451503255726 1.0216756605916433 1.0107141671560285 492.79071163953199 486.94780170616474 1.0107798106610633 
-44.274301966573660 -185.80303298864590 107.30314998755712 -44.274301966573617 -185.80303298864598 107.30314998755705 -192.92622245931278 1.9330207348324716e-06 -4.8940452900138361e-05 -0.00011584641098455156 -4.0256801187691752e-20 4.3140944636088641e-10 2.7368715627140716e-10 2.1762598856334137e-07 6.8116579946997282e-05 -4.3206705847561084e-13 3.4448699527726845e-11 2.1557604387154452e-11 7.8291717027923376e-21 -44.175503749389676 -185.65989863464350 108.01171823852533 1616.4576808433910 0.0000000000000000 0.0000000000000000 0.0000000000000000 0.0000000000000000 3.0209117538978170 3.0419242707251337 1.0210126538766036 1.0106109682560889 470.53047415706567 466.89364442012237 1.0104516682438038 
-87.510710244163491 -141.67145608834855 138.81434291189166 -87.510710244163462 -141.67145608834846 138.81434291189171 -69.253684749630082 -4.3956484410571685e-06 -8.1211939401836663e-06 -1.2702978562828705e-06 0.0000000000000000 7.7185871236173931e-10 1.5814083376142207e-10 1.4548264437586053e-07 2.4299205336880073e-05 7.5898914689504753e-12 4.0948296885669794e-12 -5.8509703202444634e-12 0.0000000000000000 -87.333945182495100 -141.58874659118649 139.28801968872074 1877.7986991733408 0.0000000000000000 0.0000000000000000 0.0000000000000000 0.0000000000000000 3.0211836349708525 3.0424695182093866 1.0212860245002557 1.0106214699167131 245.82887623275926 252.78290899109396 1.0105869281945095 
-65.892506105368582 -163.73724453849721 138.81434291189166 -65.892506105368597 -163.73724453849721 138.81434291189174 -59.790407404762284 -1.8920020222516436e-05 -2.1129614410398026e-06 9.8215666272244564e-06 3.9737872226858016e-20 6.0163053358652796e-10 2.1589979803948722e-10 1.4548264437586056e-07 1.6503066676333008e-05 8.9355506497253104e-12 3.8365164415419517e-12 -3.5004881338824076e-11 -8.0094473382817713e-21 -65.754724465942374 -163.62432261291517 139.28801968872077 2018.1238718776010 0.0000000000000000 0.0000000000000000 0.0000000000000000 0.0000000000000000 3.0210653577876623 3.0422324877512530 1.0211672703653725 1.0106482283584550 222.40785208460869 225.87729394137088 1.0105282822812918 
-87.510710244163491 -163.73724453849721 123.05874644972440 -87.510710244163462 -163.73724453849721 123.05874644972438 -91.902651924710838 -2.6796020211034278e-05 -1.7297750229090217e-05 -3.5276643224386563e-07 0.0000000000000000 7.7185871236173931e-10 2.1589979803948722e-10 1.8155430936417360e-07 5.9835482245376558e-05 -1.2277362895102053e-11 1.1626630001166038e-11 9.2729217576932699e-11 0.0000000000000000 -87.333945182495114 -163.62432261291505 123.64986896362312 1549.0027140339625 0.0000000000000000 0.0000000000000000 0.0000000000000000 0.0000000000000000 3.0220132204864902 3.0441353865670635 1.0221223192294742 1.0108416509645159 278.24709235717381 279.03954983030684 1.0110005141935252 
-87.510710244163491 -141.67145608834855 123.05874644972440 -87.510710244163462 -141.67145608834846 123.05874644972440 -51.298715937901626 -2.7698127088655482e-05 -1.6439480947764039e-05 2.8279440507296636e-05 0.0000000000000000 7.7185871236173931e-10 1.5814083376142207e-10 1.8155430936417363e-07 1.8357569810178178e-05 2.5771101985972472e-11 8.2358953846484740e-12 -1.3855914673653130e-12 0.0000000000000000 -87.333945182495086 -141.58874659118649 123.64986896362313 1389.1126189879024 0.0000000000000000 0.0000000000000000 0.0000000000000000 0.0000000000000000 3.0211207204318566 3.0423418404782336 1.0212212557343185 1.0107029411109232 195.65086031297048 197.63894645527671 1.0105550154740544 
-45.298278649877702 -110.37356733355851 47.694215993713009 -45.298278649877709 -110.37356733355848 47.694215993712994 -266.25820094114937 4.6009929855108818e-05 1.9695870218870840e-05 -5.7058595338883932e-05 -275.45817802202049 4.3947377334485610e-10 7.6213091393384515e-11 3.5409774912231740e-07 9.0738058399839812e-05 -9.9170901517765596e-12 2.8084472657405332e-12 2.4633138551945074e-11 8.9821948515387645e-05 -45.197633928000002 -110.33371083599998 48.847122559999995 1069.0094105005942 0.0000000000000000 0.0000000000000000 0.0000000000000000 0.0000000000000000 3.0214381067369329 3.0429820398437140 1.0215440827354172 1.0107141671560282 605.63313241274966 605.60354932681287 1.0107146392887889 
-57.245822419228546 -98.855343302058003 45.053444634646326 -57.245822419228503 -98.855343302057975 45.053444634646333 -282.81351303224494 1.3778615139686923e-06 2.4239890538153795e-05 -5.1248533044284400e-05 -262.47587229285978 5.3355121362730351e-10 4.6047249346869989e-11 3.6014366910919188e-07 9.8519721213743630e-05 4.9831340458076733e-12 -2.8862859409310873e-12 1.7455120310281494e-11 0.00010876796930197412 -57.123633070400032 -98.831257531200038 46.226036100800002 1475.5774262919704 0.0000000000000000 0.0000000000000000 0.0000000000000000 0.0000000000000000 3.0214372474500246 3.0429803100772257 1.0215432122309769 1.0107141671560280 617.62217263722380 617.52474115219763 1.0107142089388761 
-60.267278971250839 -105.62034220429379 56.171185884904389 -60.267278971250818 -105.62034220429381 56.171185884904389 -187.20800864536835 1.5670036809051047e-05 0.00011415696190452069 -0.00011687689400627429 26.339323715795789 5.5734272405572050e-10 6.3769239888600282e-11 3.3469013827058802e-07 6.5760926636171570e-05 8.1553187491011953e-12 -3.4356677135744784e-11 6.2350014717720001e-11 0.00012119386679307235 -60.139641125599979 -105.58699381199996 57.260903223199996 1724.6135661994952 0.0000000000000000 0.0000000000000000 0.0000000000000000 0.0000000000000000 3.0214345417839730 3.0429748875695544 1.0215404953865632 1.0107141671560280 444.30650281572707 444.89094778239820 1.0107128655276314 
-19.460072361930948 -88.125450794725282 56.612650059116824 -19.460072361930944 -88.125450794725310 56.612650059116838 -224.47677704674976 -5.6227625930429496e-06 -2.3903915781377470e-05 -0.00010505145495941870 -231.62450657686517 2.3602121992927216e-10 1.7962645260105603e-11 3.3367942697815067e-07 7.7473698153861391e-05 -3.6574823279370041e-12 8.8055788430610271e-13 1.5571509642625673e-11 8.1983623399049075e-05 -19.406020858399991 -88.116056368799974 57.699076624800000 1439.6451283969650 0.0000000000000000 0.0000000000000000 0.0000000000000000 0.0000000000000000 3.0214360334599681 3.0429778801961169 1.0215419963460268 1.0107141671560282 531.74983451144521 531.85304700622703 1.0107136076253123 
-58.901712261690960 -178.72176384405478 77.826890940377240 -58.901712261690939 -178.72176384405478 77.826890940377240 -331.88660222288883 -7.0819910328148455e-06 -2.7175376812043692e-05 -3.7869289984606077e-05 -385.02383885306887 5.4659337819784593e-10 2.5515378698770519e-10 2.8511044414258890e-07 0.00010738937695284055 3.5013998719578187e-12 5.9880966356531904e-12 2.3863676742637324e-11 0.00015150139177759779 -58.776536899199989 -178.58832514800000 78.755181813599989 1584.4809985467919 0.0000000000000000 0.0000000000000000 0.0000000000000000 0.0000000000000000 3.0219174128611477 3.0439456381490451 1.0220283867005511 1.0107141671560282 743.88301769769600 745.57249085436536 1.0109543610352838 
-74.616890737276279 -185.08496445216082 71.248439153251994 -74.616890737276293 -185.08496445216085 71.248439153251994 -328.06400688367052 5.7363547911735235e-05 -5.9597880288315114e-05 -3.8491969548017015e-06 -326.15154283157204 6.7033228620672070e-10 2.7179256067988433e-10 3.0017149610372934e-07 0.00010766823271737938 -2.9245762584967743e-11 1.9560524734609225e-11 1.1083648127096193e-12 0.00010153606610647333 -74.463376691600018 -184.94281327599995 72.225767276240006 1182.3928641350060 0.0000000000000000 0.0000000000000000 0.0000000000000000 0.0000000000000000 3.0215050290890129 3.0431149614493727 1.0216100781509070 1.0107141671560278 698.07671112971946 698.07929072877744 1.0107472639755939 
-69.881748619195292 -211.76714972483271 85.722835023347230 -69.881748619195278 -211.76714972483268 85.722835023347230 -340.31937467674311 8.1817923919787163e-06 8.2490437638619244e-06 -4.2545869909645078e-05 -352.34847988224288 6.3304616756965082e-10 3.4166433571236610e-10 2.6703307298703294e-07 0.00010873828779968843 -4.4995004272721187e-12 -7.0405127951971453e-14 9.8436445252635762e-12 0.00011199891029954547 -69.736773305200003 -211.58846536000007 86.592267764799999 1391.6778601551057 0.0000000000000000 0.0000000000000000 0.0000000000000000 0.0000000000000000 3.0214004056155845 3.0429078994434451 1.0215076480682526 1.0107141671560280 754.57920745656804 754.15472319210119 1.0106966565694522 
-86.989669581958836 -207.44668540270160 89.466602366576012 -86.989669581958864 -207.44668540270155 89.466602366575998 -290.15076996994213 6.0562830218717125e-05 -3.1666903935793254e-05 -3.5043771224855628e-05 -327.09650306125059 7.6776618049279044e-10 3.3035188473640176e-10 2.5846189344314041e-07 9.6704476065561702e-05 -2.7739978323018866e-11 1.6319103978593349e-11 -1.4029429834359895e-12 0.00010772985153299711 -86.813844096400004 -207.27391660800001 90.308128229600001 1955.0875990986240 0.0000000000000000 0.0000000000000000 0.0000000000000000 0.0000000000000000 3.0217959772892415 3.0437015769787510 1.0219057582674222 1.0107141671560276 659.14656516117407 659.53159845410687 1.0108936824023387 
-74.526964790667350 -212.76539467960231 99.893280634929084 -74.526964790667350 -212.76539467960228 99.893280634929084 -284.84552564655223 -1.0076408287020012e-05 7.3304929314854958e-06 2.0258016756992307e-05 -321.16585765641952 6.6962604558518091e-10 3.4425726158637815e-10 2.3459052456153984e-07 9.1713868372601874e-05 1.6006134888622469e-12 -2.6471893631291538e-12 1.6110117309503878e-12 9.6933393642974271e-05 -74.373612905599998 -212.58534351999998 100.65708370800000 988.41240310934302 0.0000000000000000 0.0000000000000000 0.0000000000000000 0.0000000000000000 3.0216106431605216 3.0433310792751200 1.0217205972866594 1.0107141671560274 700.41333648332375 700.66627126467142 1.0108020956903898 
-65.892506105368582 -185.80303298864590 107.30314998755712 -65.892506105368597 -185.80303298864598 107.30314998755705 -193.85508276888828 8.1727347318723368e-06 -6.5512591778193335e-05 -7.3190395780027115e-05 -1.2983358437379211e-19 6.0163053358652796e-10 2.7368715627140721e-10 2.1762598856334142e-07 7.5868011675900914e-05 -3.7245166835552295e-12 2.1798956844280391e-11 6.7515161453596481e-12 2.3790046657650155e-20 -65.754724465942374 -185.65989863464350 108.01171823852535 1808.0980320372519 0.0000000000000000 0.0000000000000000 0.0000000000000000 0.0000000000000000 3.0206416276199834 3.0413743739475869 1.0207328548792634 1.0105181582820268 458.42350712250879 456.56479857913172 1.0103128969560655 
-83.631126562996101 -208.53488519944062 108.32393356756049 -83.631126562996101 -208.53488519944062 108.32393356756050 -215.57289997136695 7.5646893109923501e-05 -5.2482302887634790e-05 -0.00010649704089918549 -208.34041184472653 7.4131259117371517e-10 3.3318545145100131e-10 2.1528894866840176e-07 7.5742038060700066e-05 -3.4659109953725768e-11 1.8559874527400930e-11 2.0464636816585557e-11 7.1692762794319493e-05 -83.461357431600007 -208.36062644399999 109.02489266960001 1287.0831768928649 0.0000000000000000 0.0000000000000000 0.0000000000000000 0.0000000000000000 3.0217679810866045 3.0436463674750693 1.0218785477696912 1.0107141671560278 509.19632628098549 512.52480659213245 1.0108801520575794 
-41.652911920409920 -130.11315633887767 64.728726880634923 -41.652911920409913 -130.11315633887764 64.728726880634909 -150.57918406416019 4.1401383701009102e-05 -2.9276941016764583e-06 -3.9962847766582773e-05 -166.22879410082530 4.1076922072114108e-10 1.2788015091302896e-10 3.1509806586171868e-07 5.2065458989048399e-05 -1.5911115479698452e-11 8.7139655017485787e-12 2.0126517221500911e-11 7.2934117113111042e-05 -41.558840772800004 -130.04627243999997 65.754654395919971 2180.9238908936368 0.0000000000000000 0.0000000000000000 0.0000000000000000 0.0000000000000000 3.0214465047092398 3.0429989334815764 1.0215525785644368 1.0107141671560276 408.24119277151777 408.87665714071653 1.0107188373529470 
-22.848259172202862 -134.51802969767382 54.806100749638631 -22.848259172202862 -134.51802969767382 54.806100749638631 -237.58346806687263 1.2033162351869768e-05 9.2590432677026318e-06 -1.3851757093951969e-05 -245.43772931538385 2.6270166250674798e-10 1.3940412713076000e-10 3.3781543495869920e-07 8.0206995706311900e-05 -2.4084087096195328e-12 -8.6207514827973092e-13 4.1003585182735911e-12 7.8651945703689665e-05 -22.788097858800000 -134.44511465599999 55.905993737599999 935.86986824075086 0.0000000000000000 0.0000000000000000 0.0000000000000000 0.0000000000000000 3.0214331012809028 3.0429719730218272 1.0215390212693716 1.0107141671560282 543.48126488000332 543.26086125948962 1.0107121381030693 
-11.064681760186588 -103.63306397136161 61.055332320175715 -11.064681760186593 -103.63306397136165 61.055332320175708 -220.08996644491629 -3.3664091014231543e-06 -3.1594660880258379e-05 -7.7989918373869480e-05 -196.03999035037307 1.6991486689876822e-10 5.8563320859406076e-11 3.2350812362302861e-07 7.4588888279837108e-05 -5.3225789552806878e-12 6.8114540741901534e-12 1.2178036877497527e-11 7.1335393864962828e-05 -11.025769398400001 -103.60243655599999 62.108642139439993 1284.9349949311236 0.0000000000000000 0.0000000000000000 0.0000000000000000 0.0000000000000000 3.0214355212790101 3.0429768534052553 1.0215414817478599 1.0107141671560278 534.00047509728586 534.33082297846863 1.0107133542339746 
-29.065627691768142 -140.84588754655258 69.077738277740465 -29.065627691768150 -140.84588754655258 69.077738277740465 -169.53611602560886 2.0725241374419725e-05 1.9543677777029002e-05 -5.0300815659936975e-05 -167.49248077743860 3.1165657207732350e-10 1.5597548252976878e-10 3.0514120630265040e-07 5.7212067321496556e-05 -6.4307254872408564e-12 9.8625961353400309e-13 2.1262939929789023e-11 8.0772731246627288e-05 -28.994254794799993 -140.76430841599998 70.071247290159988 2176.9829965296321 0.0000000000000000 0.0000000000000000 0.0000000000000000 0.0000000000000000 3.0214442272874114 3.0429943716502490 1.0215502941546630 1.0107141671560278 436.41741433849126 435.73601430260493 1.0107177052771028 
-103.61219303117292 -194.20856615129506 93.226920589359779 -103.61219303117288 -194.20856615129512 93.226920589359779 -213.51409095224071 5.8049961700352770e-06 -1.7978331100840369e-05 -6.5820104653616397e-05 -262.51501478655609 8.9864781935289340e-10 2.9568278381297835e-10 2.4985283331169228e-07 7.7429679863869663e-05 -1.6940004916248033e-12 2.4640478555912011e-12 2.3152926060228169e-11 6.5366883315529320e-05 -103.40639267600000 -194.05392295999994 94.040416199999996 2662.2783756828549 0.0000000000000000 0.0000000000000000 0.0000000000000000 0.0000000000000000 3.0215421124471251 3.0431928194563009 1.0216508649724252 1.0107141671560276 512.39011047599695 512.96715916373171 1.0107675327343593 
-82.676548596007663 -162.41249041118041 76.866443265569600 -82.676548596007692 -162.41249041118041 76.866443265569600 -238.46003647795158 -2.9233547833268251e-05 -2.5913362045387177e-05 -3.8074164840227976e-05 -262.12286840006232 7.3379110773763578e-10 2.1244334069692170e-10 2.8730935519583062e-07 8.5530919825118365e-05 1.4687391667803785e-11 9.1145108232796665e-12 2.8294807869923309e-11 0.00012000715686903521 -82.508500824799995 -162.30138233600007 77.801893530400037 2229.3857910936085 0.0000000000000000 0.0000000000000000 0.0000000000000000 0.0000000000000000 3.0217939400209848 3.0436975073892683 1.0219037259890476 1.0107141671560282 554.30743420116369 554.85476121376496 1.0108926849552515 
-28.060655888391711 -125.12211475073707 126.99764556526621 -28.060655888391700 -125.12211475073715 126.99764556526625 -17.163537052265433 5.5446484712572375e-06 -2.6192604362245799e-06 1.7069351161750498e-05 -3.2179335597604612e-20 3.0374445667002986e-10 1.1481451900330343e-10 1.7253638251446546e-07 6.9373974444205979e-06 -7.2083862505635562e-13 -2.2220022636349828e-12 -1.6977308096660600e-11 6.0372886814462821e-21 -27.991095225219734 -125.06206457489009 127.55940664489751 1124.7619503421174 0.0000000000000000 0.0000000000000000 0.0000000000000000 0.0000000000000000 3.0214558723343434 3.0430174325187083 1.0215617084466582 1.0107538783326937 136.93972692822260 138.95447560947920 1.0107233345303757 