# For a description of the Tecplot format see the Tecplot User's guide.
#
Variables=x,y,z,s_u,s_v,s_w,s_p,mono_f_vel_u,mono_f_vel_v,mono_f_vel_w,const,u_nu,v_nu,w_nu,p_nu,x_nu,y_nu,z_nu,const,u_ref,v_ref,w_ref,vol_ref,x_ref,y_ref,z_ref,const,I1,I2,I3,J,p1,p2,p3
Zone f=fepoint, n=751, e=3313, et=brick, c=black
101.223 102.407 128.446 101.22283193716687 102.40730976759490 128.44583097966708 -2.5359464180213611 8.7456752998253155e-07 8.9282435969490986e-07 1.0383972661229135e-06 -2.2268064149106124 -5.8719166300125184e-09 -3.8616218556164483e-09 9.3236522547002210e-07 3.0123749918944932e-06 -1.5201202425493412e-12 -1.9804930098954767e-12 -2.7906474702153585e-12 2.2818766081641139e-06 100.96520492400001 102.01397999600000 129.23124416239995 670.69438439371061 0.0000000000000000 0.0000000000000000 0.0000000000000000 0.0000000000000000 3.0315922378624842 3.0634254786103243 1.0318337722026263 1.0157875057153969 188.61508037255774 188.61506479014892 1.0157921917003774 
78.326949256873192 105.03427438417931 135.57068448347542 78.326949256873206 105.03427438417931 135.57068448347539 -1.8050008334648358 -1.3020943656965924e-07 -1.7424351764752098e-06 -5.4166115078030966e-07 0.0000000000000000 -5.5263070731948934e-09 -1.1897130827912102e-09 8.4208415526782363e-07 1.7077295875147445e-06 9.2517644629191786e-14 3.9519113456658214e-12 1.2400282281927600e-12 0.0000000000000000 78.133946258989411 104.63609650620822 136.28027551376724 721.68416405358573 0.0000000000000000 0.0000000000000000 0.0000000000000000 0.0000000000000000 3.0316018399944324 3.0634430870756684 1.0318417722225706 1.0157998019531702 187.41572821316183 187.41574031979536 1.0157961245186937 
92.012334364444229 115.55436317268499 137.63723333020482 92.012334364444257 115.55436317268503 137.63723333020474 -5.7109350732126911 3.3310122209852279e-06 3.7810857572205712e-06 1.8312161522674946e-06 0.0000000000000000 -5.2761440320903130e-09 -4.1382114679411330e-09 8.1642197713449615e-07 6.2143049145809221e-06 -1.0487420589772584e-11 -6.2100539015081183e-12 1.3209231280068320e-12 0.0000000000000000 91.780846449217904 115.13286190067187 138.32497732256982 611.89703617582188 0.0000000000000000 0.0000000000000000 0.0000000000000000 0.0000000000000000 3.0314654797426646 3.0631671971487351 1.0317022317835798 1.0157397192714750 191.68155027656019 191.68156784072258 1.0157274419088214 
82.963539310378508 123.29335452477378 128.17756646817588 82.963539310378550 123.29335452477379 128.17756646817588 -1.0235807699405854 2.1529318456514318e-06 6.4256637885262909e-07 2.6798559595560123e-06 0.0000000000000000 -4.6908292909708660e-09 -4.3010175976299073e-09 9.3574918835770404e-07 5.7162537165223610e-07 -4.8893224373905454e-12 -6.3155930314401727e-13 -5.3431375728119374e-13 0.0000000000000000 82.757731586509351 122.85527014539862 128.96583026898026 586.80797703944893 0.0000000000000000 0.0000000000000000 0.0000000000000000 0.0000000000000000 3.0317173473876413 3.0636770822127768 1.0319602718142311 1.0158091019902207 185.54830746741879 185.54830570458250 1.0158544557094562 
17.375511319624422 125.58435969627766 176.13638417894376 17.375511319624422 125.58435969627770 176.13638417894376 -0.62250170818471307 6.8087801863551585e-08 -9.9718012695539659e-08 5.0863348103192160e-07 -0.40447266669926552 -4.4834598186827002e-10 -4.3492130452627009e-09 3.3078153238719210e-07 4.8406202251721265e-07 -2.9261693553968471e-13 5.9708553273252274e-14 -1.1200880535989041e-12 -7.5783433866841918e-08 17.355840324399995 125.14136615200003 176.41503054399996 584.52935312811633 0.0000000000000000 0.0000000000000000 0.0000000000000000 0.0000000000000000 3.0315092349833326 3.0632565132537901 1.0317477982931342 1.0157935287905000 185.60172620660038 185.60158430911184 1.0157498731561958 
27.011792683565481 134.28878056158811 191.68739610605064 27.011792683565485 134.28878056158808 191.68739610605058 -0.85266895522481367 -1.1869701829366928e-07 -1.0107914309290978e-07 -2.0149476674848177e-07 -0.67850043527722192 -1.0716596741955353e-09 -4.5323308439648721e-09 1.3461615333554280e-07 1.1658630381539930e-06 2.8200137533763403e-13 2.1939248523080193e-13 7.8155115213202652e-13 1.3194145252322940e-06 26.964774229600000 133.82713518800003 191.80079513600000 424.00039483148663 0.0000000000000000 0.0000000000000000 0.0000000000000000 0.0000000000000000 3.0315837087354955 3.0634074929906090 1.0318243117734893 1.0158107723163001 186.20967522271866 186.20971587819730 1.0157875341844727 
34.496835227162649 116.14444237257955 187.03350391919113 34.496835227162627 116.14444237257960 187.03350391919108 -0.81203431736344855 -3.3847827013918075e-09 -3.3783071962004386e-07 -5.4273768102829811e-07 0.0000000000000000 -1.5558199555065766e-09 -4.1506240389121993e-09 1.9332184120202101e-07 1.3368968222355965e-06 -1.1597753909213061e-12 5.8272511497879553e-13 1.0031451401492233e-12 0.0000000000000000 34.428574461520604 115.72167667910905 187.19635589055414 461.32250970984569 0.0000000000000000 0.0000000000000000 0.0000000000000000 0.0000000000000000 3.0317377946423338 3.0637197279894797 1.0319824763871106 1.0158585108622127 187.46018758770597 187.46027228126570 1.0158653803197308 
39.296787430226061 130.94906047426815 183.92379963660338 39.296787430226054 130.94906047426818 183.92379963660335 -0.76684642306021322 -4.5026192198985469e-09 1.7928705142509085e-07 8.5541939641283009e-08 0.0000000000000000 -1.8662989036133393e-09 -4.4620690475838395e-09 2.3254861591937015e-07 1.3015300088471477e-06 -4.2237442191781354e-13 -1.4197710166512465e-13 -6.2630748375971035e-13 0.0000000000000000 39.214904553535689 130.49457145145601 184.11969578207388 506.84955737005060 0.0000000000000000 0.0000000000000000 0.0000000000000000 0.0000000000000000 3.0317672206801869 3.0637797304734069 1.0320130571045154 1.0158773934230683 187.12019814633655 187.12022009256350 1.0158804314548040 
92.452877161614367 80.364086202359260 140.41999973992182 92.452877161614396 80.364086202359232 140.41999973992185 -4.0336948338945851 7.6583469576640177e-07 -1.2034858492722942e-06 3.7747171097718335e-06 -4.6633785897010887 -5.3046387386845861e-09 -3.3978913571708347e-09 7.8131928393787565e-07 5.0429674847235932e-06 9.5361556485147455e-13 6.9546493167666845e-13 -4.2110497167885920e-12 4.1558500599081892e-06 92.220139000000003 80.017990640800008 141.07817364800005 702.90430050513112 0.0000000000000000 0.0000000000000000 0.0000000000000000 0.0000000000000000 3.0316076813212454 3.0634568445611357 1.0318496962711412 1.0157848918998431 192.20887197753277 192.20894895673015 1.0158000273617562 
74.647072994335474 88.382973295904648 146.14443256687292 74.647072994335502 88.382973295904634 146.14443256687298 -3.8989805229352981 1.7270920142485768e-06 2.8977387546486258e-08 2.4919125519088364e-06 0.0000000000000000 -4.1528948162283807e-09 -3.5665811692897624e-09 7.0910949068192508e-07 4.2601979551000149e-06 -4.8004259901666854e-12 1.3798655685306777e-12 4.8680769870670474e-13 0.0000000000000000 74.464867136254526 88.019694866508104 146.74177781157636 687.97096627412452 0.0000000000000000 0.0000000000000000 0.0000000000000000 0.0000000000000000 3.0314475114909896 3.0631305443089469 1.0316835424140651 1.0157559388184176 191.91834911694033 191.91811074893911 1.0157182441206698 
88.944127474975033 101.33176654025524 146.38150741591144 88.944127474975033 101.33176654025523 146.38150741591150 -4.0574633273230889 -4.3505176711870873e-07 -2.5261174240412432e-06 1.5764857921981009e-06 0.0000000000000000 -5.0776844499889071e-09 -3.8389958434414950e-09 7.0611894065208958e-07 4.2104153489690215e-06 1.7545807057207241e-13 6.7646453740968771e-12 1.0385109665744140e-12 0.0000000000000000 88.721347032906593 100.94074144222820 146.97633346847434 663.28984972450473 0.0000000000000000 0.0000000000000000 0.0000000000000000 0.0000000000000000 3.0314853508728783 3.0632067655105719 1.0317219264939903 1.0157425238369082 189.61521836293045 189.61524368339269 1.0157371319371657 
85.682814019431561 140.49688413892767 151.06935664762327 85.682814019431575 140.49688413892770 151.06935664762332 -8.5016995472664636 8.7732777234271266e-06 -1.1121466772240829e-06 4.2406029885946882e-06 0.0000000000000000 -3.3559660565903183e-08 -1.6684992008696312e-09 6.4930968511244707e-07 1.1420640651968562e-05 -1.3918698812346167e-11 1.1921172521721226e-12 -7.9919169135486461e-12 0.0000000000000000 85.459218063467631 140.02300745976530 151.61519551341360 476.24748091524685 0.0000000000000000 0.0000000000000000 0.0000000000000000 0.0000000000000000 3.0304831789505280 3.0611886453066166 1.0307059316003506 1.0154155687445632 193.79370394875301 193.79377221430150 1.0152368797577827 
91.947212132662273 156.81815623854033 157.09134180323574 91.947212132662287 156.81815623854030 157.09134180323565 -7.9858441588044364 6.2425837314338728e-06 -6.6326231762064245e-06 -1.0237146147250840e-05 0.0000000000000000 -2.2798262506563777e-08 5.0693957861721849e-09 5.8826620476926585e-07 1.0396491140122197e-05 -8.4892050050954030e-12 9.9570921726637604e-12 1.4138494649543980e-11 0.0000000000000000 91.709471753294835 156.31199629255431 157.57700102778753 403.99548669618792 0.0000000000000000 0.0000000000000000 0.0000000000000000 0.0000000000000000 3.0307787688449377 3.0617877568791223 1.0310094911563328 1.0154997052488184 193.39862340983197 193.39917618666371 1.0153863315487219 
97.031644105678382 153.56365486724826 145.11909652904149 97.031644105678410 153.56365486724826 145.11909652904157 -16.013976555271611 6.6601057156746970e-06 -1.0806841500631054e-06 -2.3609492769453842e-06 0.0000000000000000 -5.6008167097221220e-09 -4.9378339750383304e-09 7.2204339973680486e-07 2.0536867933275937e-05 -1.8507536785872808e-11 -1.2633473277461739e-12 3.5160848571664332e-12 0.0000000000000000 96.785911549716332 153.06070730123477 145.72733714496792 456.23530676845718 0.0000000000000000 0.0000000000000000 0.0000000000000000 0.0000000000000000 3.0307212817531930 3.0616664221752945 1.0309456149946110 1.0155122293058911 213.37406343336474 213.37381318323330 1.0153548961346912 
82.512458369760509 164.68905120161259 144.81332679865019 82.512458369760509 164.68905120161256 144.81332679865011 -4.2938315261380753 5.9572082053103261e-06 -2.0624773597683384e-06 -9.8437887564468048e-08 0.0000000000000000 -4.6616557107526110e-09 -5.1718728744099005e-09 7.2590046062970259e-07 5.7189183258690557e-06 -1.5451566289141628e-11 4.2220760836253991e-12 -3.4167672967743222e-12 0.0000000000000000 82.307930799193869 164.16226414108826 145.42481656860858 485.27947692580005 0.0000000000000000 0.0000000000000000 0.0000000000000000 0.0000000000000000 3.0313437397232410 3.0629251916527993 1.0315819741466328 1.0157216163990037 189.76884397571243 189.76858047510180 1.0156682357058602 
33.675345191558300 208.40081093660478 167.15079696239650 33.675345191558293 208.40081093660478 167.15079696239650 -6.0761241656264424 1.3183561710593259e-06 1.0378886678417993e-06 2.0541576367564604e-06 -6.6859239656722300 -1.5026805598450379e-09 -6.0914607802331480e-09 4.4412855793041212e-07 7.3599624675688201e-06 -4.1387396101110002e-12 -6.3102962698827176e-13 -1.6007562845582463e-12 7.2749828366749732e-06 33.609415788399993 207.78035833600003 167.52492549599995 615.15266451637694 0.0000000000000000 0.0000000000000000 0.0000000000000000 0.0000000000000000 3.0316018778060756 3.0634443526783746 1.0318430047042404 1.0157935287904996 196.95425790978467 196.95418848661117 1.0157967340433269 
55.961120094555476 213.41416927470925 166.96274015516241 55.961120094555469 213.41416927470934 166.96274015516244 -7.2007997532391794 3.8865671815144456e-07 -2.0585430585511087e-07 -6.9388840877591746e-07 -8.6278728681555457 -2.9442118014422199e-09 -6.1969357423308233e-09 4.4650077413166400e-07 8.1603993005897597e-06 3.5150807230573661e-13 9.0699849734569002e-14 8.9567915393801443e-13 1.0116294817091004e-05 55.831944374000017 212.78297405200007 167.33886700799999 549.00030013603362 0.0000000000000000 0.0000000000000000 0.0000000000000000 0.0000000000000000 3.0316553002628406 3.0635525869321478 1.0318978228154916 1.0157935287905000 199.58444015900386 199.58493705024634 1.0158237185880155 
35.488608768075267 212.81625266324971 178.35286897570009 35.488608768075267 212.81625266324974 178.35286897570012 -7.6248874197554244 8.5106641878116082e-08 4.2528419239936105e-09 -2.9468970689042603e-08 -8.2524835156766638 -1.6199719864162798e-09 -6.1843503096348237e-09 3.0282210383703045e-07 8.9516925505028763e-06 -2.5427970957025904e-13 5.4057415651896752e-14 9.9886504463304411e-13 9.4788499686876414e-06 35.417533380799995 212.18633865599992 178.60796264800001 486.18125446555638 0.0000000000000000 0.0000000000000000 0.0000000000000000 0.0000000000000000 3.0315832257795137 3.0634066671270048 1.0318239695460723 1.0157935287904996 199.24492150016658 199.24485242496004 1.0157873639011399 
46.936178943954864 199.31811895565536 180.36978430691221 46.936178943954872 199.31811895565536 180.36978430691218 -5.7829970711166840 -1.1617717748307688e-06 2.4635012257616252e-06 1.7668230694337574e-07 -8.1925450562141759e-22 -2.3604479863770234e-09 -5.9003991137451814e-09 2.7738008334665665e-07 6.7740153124383687e-06 2.3303128515128479e-12 -5.4101270405435489e-12 -1.4650885980511019e-13 2.0654370468721156e-22 46.832615718140389 198.71712874354589 180.60344594088681 523.91560374249821 0.0000000000000000 0.0000000000000000 0.0000000000000000 0.0000000000000000 3.0315835534318301 3.0634070676563523 1.0318240412643827 1.0157884398087036 195.71787042307761 195.71775678010152 1.0157873998359284 
96.483214462149760 217.09420254442702 209.25956422347409 96.483214462149789 217.09420254442696 209.25956422347414 -7.1643669363229519 1.3404539771488560e-06 -9.8115325260525868e-07 2.1354292757544238e-06 -6.2836615997615590 -5.5653393109256219e-09 -6.2743445994328786e-09 -8.7044716767792338e-08 8.6209946376869582e-06 -3.0893619056685306e-12 9.5712310358413688e-13 -2.2657090613979659e-12 8.8051278912274693e-06 96.239038332000007 216.45512174800007 209.18623881599996 631.91745939117959 0.0000000000000000 0.0000000000000000 0.0000000000000000 0.0000000000000000 3.0315980734455361 3.0634362367297423 1.0318386910512631 1.0157935287905009 196.89663697794049 196.89628045216980 1.0157946131720714 
94.600843321144637 193.97210115810319 200.32500013680286 94.600843321144609 193.97210115810319 200.32500013680291 -4.6135763626041495 2.5699154956706275e-06 1.3764975928366503e-06 2.4066428453056839e-06 0.0000000000000000 -5.4435738798541689e-09 -5.7879272485905631e-09 2.5658717817123033e-08 4.6994893248268256e-06 -4.1211028127001970e-12 -2.7075074309735096e-12 -4.3231257455089521e-12 0.0000000000000000 94.362009300172701 193.38256639064585 200.34661471860946 540.30507100961415 0.0000000000000000 0.0000000000000000 0.0000000000000000 0.0000000000000000 3.0317025477811037 3.0636482955071931 1.0319462864223030 1.0158149353455845 192.87485357949743 192.87426685567212 1.0158475682392305 
78.239350376207483 207.55101779634882 205.64568365999816 78.239350376207526 207.55101779634882 205.64568365999818 -4.7334684601400703 -1.5810705619862464e-07 1.8262549497379719e-06 1.9252799541274536e-07 0.0000000000000000 -4.3852470647809394e-09 -6.0735750873064376e-09 -4.1458089850010544e-08 5.5632494420371381e-06 5.0074282301343555e-13 -4.7330730869393572e-12 -5.6769904026647077e-13 0.0000000000000000 78.046949749649244 206.93238613212182 205.61075987778861 538.13699893605542 0.0000000000000000 0.0000000000000000 0.0000000000000000 0.0000000000000000 3.0315387566883829 3.0633162660254794 1.0317780310260363 1.0157817561609075 193.01335857205788 193.01511804242674 1.0157647516380794 
85.148228131949438 205.03804882278180 191.47413617394119 85.148228131949452 205.03804882278195 191.47413617394125 -4.2441932808371003 -1.6655079757849581e-07 1.6299143384197613e-06 -2.7083902054065483e-07 0.0000000000000000 -4.8321449723498500e-09 -6.0207295815573048e-09 1.3730628367625286e-07 5.0627934748634051e-06 5.6459764319201527e-13 -3.9315613505978838e-12 1.4751072868987459e-12 0.0000000000000000 84.936220330980632 204.42480194739744 191.58980133522857 604.76712528715223 0.0000000000000000 0.0000000000000000 0.0000000000000000 0.0000000000000000 3.0315098612391962 3.0632582044314010 1.0317488642472279 1.0157711805826408 191.98092650099539 191.98052785726861 1.0157503942599062 
113.64085259919092 117.95622611890788 244.64413915800273 113.64085259919096 117.95622611890785 244.64413915800279 -12.813541511060940 6.4992574075600234e-06 6.9811676797611552e-06 -8.5619121442736365e-07 -8.4856286410549622 -6.6751653197971708e-09 -4.1887399659934488e-09 -5.3339690930798156e-07 1.6710516354640720e-05 -1.3828940362242761e-11 -1.2530028108945365e-11 1.1828624556650737e-12 9.6035344468282570e-06 113.34798364000000 117.52957813600004 244.19481206399999 528.80800065863059 0.0000000000000000 0.0000000000000000 0.0000000000000000 0.0000000000000000 3.0316035429255499 3.0634477135505098 1.0318447006299980 1.0157935287904993 205.60248736526140 205.60239176393364 1.0157975689421548 
132.20855616488299 108.26636913750899 232.58641877150498 132.20855616488299 108.26636913750896 232.58641877150501 -10.617205672460376 2.7299722626766905e-06 6.6968871817074311e-06 -1.1460983223650835e-06 -10.432166729421352 -7.8761759440826307e-09 -3.9848887800619792e-09 -3.8129700241640313e-07 1.3111005090699501e-05 -6.6845797347280790e-12 -1.5150864089525844e-11 1.4676557655903193e-12 1.2871328107667528e-05 131.86299265599999 107.86048457600002 232.26521878399993 473.65725366393821 0.0000000000000000 0.0000000000000000 0.0000000000000000 0.0000000000000000 3.0316057642740728 3.0634520410206316 1.0318468058172825 1.0157935287904991 202.23806875463040 202.23834616117333 1.0157986051143519 
138.46437990084308 117.97389162454581 242.06588235076705 138.46437990084311 117.97389162454580 242.06588235076700 -19.133628777437114 3.2288398000081365e-06 1.0241497028181288e-05 -5.3590408279957137e-08 -21.552229896624855 -8.2808496275343924e-09 -4.1891068391919362e-09 -5.0087394409814578e-07 2.4466526671819189e-05 -7.7780160016093765e-12 -2.2364350605843390e-11 -1.7127699594625312e-12 2.8023742597916389e-05 138.10106256400007 117.54720578799999 241.64395219200011 506.36701957862067 0.0000000000000000 0.0000000000000000 0.0000000000000000 0.0000000000000000 3.0315956315638108 3.0634316994848443 1.0318365970661694 1.0157935287904991 217.23373912167565 217.23372109770028 1.0157935798593640 
129.45218288153967 97.823718598396312 241.74329725822901 129.45218288153961 97.823718598396312 241.74329725822903 -7.5202896454260699 1.1346829350606600e-06 1.5189696381663081e-06 1.8419802482405231e-06 -5.8197742896501641 -7.6978875045152773e-09 -3.7651921303005764e-09 -4.9680475644464661e-07 1.0395902497839487e-05 -2.6921651282573341e-12 -3.0153999106261679e-12 -4.6398859532018893e-12 8.9651686618275561e-06 129.11444187200001 97.440210543999996 241.32479493600007 591.89889224097271 0.0000000000000000 0.0000000000000000 0.0000000000000000 0.0000000000000000 3.0315889650114087 3.0634182892271293 1.0318298531880534 1.0157935287904991 196.89805784119750 196.89809993982834 1.0157902603247719 
14.024658032216486 112.12604844868758 139.88202126165444 14.024658032216481 112.12604844868757 139.88202126165444 -1.3783645465035110 -1.1498718957959405e-07 -7.4642832852886738e-07 -1.3288131905503062e-06 -1.5584061454709102 -2.3160187309634320e-10 -4.0660848021900628e-09 7.8810549908325811e-07 1.7654301675954461e-06 1.7915730370571421e-13 1.6368399871235911e-12 1.4200109649842826e-12 2.1653125267368468e-06 14.014496651600004 111.71189336799999 140.54591180800000 624.85672902923056 0.0000000000000000 0.0000000000000000 0.0000000000000000 0.0000000000000000 3.0315773373061252 3.0633947759499227 1.0318179668043688 1.0157935287905009 187.50312440750636 187.49353212980685 1.0157844097827515 
20.201835247863798 93.917865955021213 153.62585642321739 20.201835247863805 93.917865955021185 153.62585642321739 -1.3590385023826095 1.8529588186903191e-07 -4.9374392499014829e-07 8.0555682629552177e-08 -1.0058463908740569 -6.3116569956611624e-10 -3.6830251071151561e-09 6.1473644041853959e-07 1.8204723785909263e-06 -4.0180813427579963e-13 1.1552451869701440e-12 -9.0540535930651632e-14 1.4966390872869278e-06 20.174143235600006 93.542727360000015 154.14370295999998 524.41133349327765 0.0000000000000000 0.0000000000000000 0.0000000000000000 0.0000000000000000 3.0315598597352729 3.0633592704551798 1.0317999369479585 1.0157935287905002 186.85792603111986 186.84596733067386 1.0157755351504361 
21.499274474951822 94.094988352819527 139.72648555642320 21.499274474951822 94.094988352819527 139.72648555642320 -1.2491456940643924 -1.6217522408064468e-07 1.0002288803750252e-06 -4.2599787401396587e-07 -1.1700953949186241 -7.1508777024775760e-10 -3.6867498220960471e-09 7.9006750253185476e-07 1.6860016993284956e-06 4.1956968709642539e-13 -1.4401085389678126e-12 -3.3890653583342270e-13 1.7509000218404854e-06 21.467900371599999 93.719470220000019 140.39202884800000 315.63944908874407 0.0000000000000000 0.0000000000000000 0.0000000000000000 0.0000000000000000 3.0315984563932159 3.0634373741746996 1.0318394468679744 1.0157935287905016 187.32669652600703 187.46185639451073 1.0157949826086536 
29.526437216272122 99.498520416047938 146.34457810938645 29.526437216272132 99.498520416047981 146.34457810938645 -1.0623892267064439 -3.8396682551192309e-07 9.6104596540893879e-07 6.9898831455473941e-07 0.0000000000000000 -1.2343169368544959e-09 -3.8004249747203281e-09 7.0658478890095466e-07 1.4133143586709683e-06 5.9036029662161120e-13 -2.4223827084899871e-12 -6.5268252996523750e-13 0.0000000000000000 29.472282281437170 99.111423597032470 146.93979657818042 390.26355728796733 0.0000000000000000 0.0000000000000000 0.0000000000000000 0.0000000000000000 3.0316411889507595 3.0635240593838797 1.0318834040787765 1.0158205912399227 186.86277770971409 186.87940605143820 1.0158166193412417 
76.847927821193892 150.47494366780194 158.28910197867640 76.847927821193920 150.47494366780199 158.28910197867651 -2.9392674554111342 3.6372748029177642e-06 -3.1933435436024739e-06 -3.5034831009290847e-06 0.0000000000000000 -2.5606238355198705e-08 3.2160168114212273e-09 5.6366570083316224e-07 5.9817501220682134e-06 -9.1587417090028040e-12 8.1291742493060603e-12 4.6426102774797961e-12 0.0000000000000000 76.652353294489046 149.98107087458629 158.75952728681344 425.39563737728241 0.0000000000000000 0.0000000000000000 0.0000000000000000 0.0000000000000000 3.0317657028184701 3.0637807801764350 1.0320156375045488 1.0158275615810348 189.93994384935698 189.93962974996248 1.0158817228100820 
55.483404140334997 54.096114903084491 201.16524372993368 55.483404140334990 54.096114903084484 201.16524372993371 -0.87287855198268438 2.9602032389522211e-07 6.4418065820248899e-07 1.3940552226143493e-06 0.16510973381006669 -2.9133102145972867e-09 -2.8452765421516095e-09 1.5059615776635834e-08 1.6915042349978638e-06 -4.7784598036168917e-14 2.2959041202717490e-14 -1.0828127911495076e-12 1.7142625065013412e-06 55.355584162400007 53.806306339199992 201.17792976000004 597.52769362106756 0.0000000000000000 0.0000000000000000 0.0000000000000000 0.0000000000000000 3.0315979307825027 3.0634363967996956 1.0318389959502225 1.0157935287905007 185.43493114151650 185.43505483211632 1.0157947604745923 
65.650398800059222 51.049254481475103 192.80368461558686 65.650398800059207 51.049254481475096 192.80368461558689 -1.2105447869380881 9.8260924188193249e-07 -5.2334944050926870e-08 -5.2614273232787209e-07 0.16971166052992320 -3.5709494076996418e-09 -2.7811797587151688e-09 1.2053493980701546e-07 1.8166692899063858e-06 -1.8316205713866535e-12 -2.6809819842743490e-13 -7.0004299355240251e-13 1.0366053044989616e-07 65.493725216000016 50.765974728800010 192.90522179999996 561.03655596593671 0.0000000000000000 0.0000000000000000 0.0000000000000000 0.0000000000000000 3.0315730267598116 3.0633860298967379 1.0318135308564431 1.0157935287905007 185.44927099597319 185.45029433808330 1.0157822252957975 
56.838308712897195 74.052743547494941 184.54214780870296 56.838308712897216 74.052743547494899 184.54214780870288 -1.9961166694076511 -1.5304662633921954e-06 7.9086502857305792e-07 -1.4324868585342821e-06 0.0000000000000000 -3.0009497768712645e-09 -3.2651079340251243e-09 2.2474857175325269e-07 2.2743207231824817e-06 3.7003530700067172e-12 -1.6284724135948442e-12 3.1243651126735199e-13 0.0000000000000000 56.706643559059096 73.720171928279385 184.73147329574385 573.33698948582105 0.0000000000000000 0.0000000000000000 0.0000000000000000 0.0000000000000000 3.0315848278605850 3.0634101531802851 1.0318258542274885 1.0157780782095824 186.79561422350613 186.79569908876991 1.0157882913165139 
62.588271087463973 72.674674393903274 198.49623949701103 62.588271087463966 72.674674393903317 198.49623949701103 -1.4832793318911621 8.1564330399291895e-07 5.8461789845309847e-07 1.0453420128547220e-06 0.0000000000000000 -3.3728815955480491e-09 -3.2361157364935167e-09 4.8727278212368219e-08 1.4854303238646006e-06 -1.0355644620115042e-12 3.7511135354091400e-13 -3.8652792938594075e-13 0.0000000000000000 62.440287724052887 72.345055700681243 198.53728675777714 543.83592771801068 0.0000000000000000 0.0000000000000000 0.0000000000000000 0.0000000000000000 3.0316523014114676 3.0635455209301039 1.0318937485416197 1.0158052171596728 186.62403356112881 186.62381743832418 1.0158217135579395 
58.946618733941250 69.842978385826072 120.92047490878684 58.946618733941250 69.842978385826072 120.92047490878687 -3.5470258663027487 -4.9357299607337275e-07 3.2904395341868021e-07 -8.8981825263709824e-07 -3.9034123266944638 -3.1373262980582961e-09 -3.1765462205068933e-09 1.0272924422238818e-06 4.7437118761608620e-06 5.8182130876015942e-13 5.1076439708718299e-13 5.2784319466394898e-13 5.3669722329756673e-06 58.808970263599988 69.519427449600002 121.78585362959998 576.79672285906474 0.0000000000000000 0.0000000000000000 0.0000000000000000 0.0000000000000000 3.0316140272764112 3.0634690678757828 1.0318555723824760 1.0157935287904989 191.62235745485103 191.62257246624770 1.0158029200434553 
69.449354566791698 79.299071189444703 113.31504824887588 69.449354566791712 79.299071189444703 113.31504824887588 -4.1211802651526579 -8.7560414542139268e-07 2.3971993931208645e-07 -8.4664524500881791e-07 -4.4735556916406560 -3.8166801490102653e-09 -3.3754863626445082e-09 1.1232296861507507e-06 5.1320275550453538e-06 1.3563332018110107e-12 1.7154819734492354e-13 1.8062953107025394e-12 6.4053105485341839e-06 69.281899667600001 78.955257741599993 114.26124334959998 627.80892195414640 0.0000000000000000 0.0000000000000000 0.0000000000000000 0.0000000000000000 3.0315706594347227 3.0633814203995371 1.0318112890472393 1.0157821728476233 192.46352622125704 192.46341839210166 1.0157811224616629 
53.687049083126794 82.275260829919674 127.39849658833589 53.687049083126794 82.275260829919702 127.39849658833596 -2.7753985409064641 6.5638976315675107e-07 -1.7473569891789816e-07 -3.3133777707950522e-06 0.0000000000000000 -2.7971157993966766e-09 -3.4380920888033022e-09 9.4557662810856868e-07 3.5707695954639616e-06 -1.2032396275891389e-12 5.8433138437063952e-13 2.2038146971982803e-12 0.0000000000000000 53.564327103470994 81.925070004185230 128.19503890002485 554.79072012081656 0.0000000000000000 0.0000000000000000 0.0000000000000000 0.0000000000000000 3.0315756615886627 3.0633911252509169 1.0318159895854986 1.0157904645550080 189.73175042913263 189.73234433575485 1.0157834361604934 
71.994156696212002 88.218216708577245 133.06912572441163 71.994156696212016 88.218216708577273 133.06912572441163 -2.8142450913683592 2.2419136996870120e-07 -7.0771469870560518e-08 -9.8251209777543882e-07 0.0000000000000000 -3.9812960254959070e-09 -3.5631144146286435e-09 8.7404552573389072e-07 3.6031260746653378e-06 -1.0684645842228822e-12 1.4001446150507564e-12 2.9491220772860884e-13 0.0000000000000000 71.819479729854507 87.855291319525605 133.80541109864149 650.17445806596595 0.0000000000000000 0.0000000000000000 0.0000000000000000 0.0000000000000000 3.0315313731168776 3.0633013269407119 1.0317704747719854 1.0157796203649079 189.19820843830837 189.19795863047966 1.0157610326577602 
126.15250007111112 189.71678141011984 197.62603212397056 126.15250007111109 189.71678141011986 197.62603212397059 -15.289914646925226 5.4564288131715498e-06 -3.3100716462273883e-06 1.0907678917309962e-05 -14.216313336773233 -7.4844559543041367e-09 -5.6984044149999136e-09 5.9704338806199075e-08 1.6915761170464688e-05 -5.4060608842851353e-12 1.0553894013957208e-11 -1.4456544073722365e-11 8.7275273946559549e-06 125.82412345600004 189.13636493999999 197.67632633599993 503.64342916552181 0.0000000000000000 0.0000000000000000 0.0000000000000000 0.0000000000000000 3.0315362159023773 3.0633107789658207 1.0317750845404137 1.0157606524102691 210.92849451706977 210.92865012920026 1.0157632947602020 
119.13322962577324 196.63427562576902 188.06381816300760 119.13322962577325 196.63427562576905 188.06381816300760 -5.5934752310530236 1.7778925199404952e-06 -1.3376726550284084e-06 2.1743850508348684e-06 -4.1382157476869734 -7.0304249748243128e-09 -5.8439381667163559e-09 1.8032513660060090e-07 5.4778636779273680e-06 -2.1895260732671932e-12 3.5851798622457488e-12 -8.8730249049803938e-13 3.9543753503753986e-06 118.82477347600000 196.03903635200001 188.21572186400002 621.89416662488350 0.0000000000000000 0.0000000000000000 0.0000000000000000 0.0000000000000000 3.0315907262986852 3.0634228285229308 1.0318326351625020 1.0157935287905000 193.15453718693766 193.15676841934444 1.0157916300844592 