# For a description of the Tecplot format see the Tecplot User's guide.
#
Variables=x,y,z,s_u,s_v,s_w,s_p,mono_f_vel_u,mono_f_vel_v,mono_f_vel_w,const,u_nu,v_nu,w_nu,p_nu,x_nu,y_nu,z_nu,const,u_ref,v_ref,w_ref,vol_ref,x_ref,y_ref,z_ref,const,I1,I2,I3,J,p1,p2,p3
Zone f=fepoint, n=246, e=987, et=brick, c=black
38.2059 186.432 154.183 38.205859320937400 186.43222518038192 154.18320596653672 -4.8279955354107473 -2.5508967721387326e-07 1.7410228403912271e-07 -1.2230317612527044e-07 -4.4993480151028047 -1.3731116333154382e-05 -9.9298152184124078e-07 -0.00016452754811496773 0.00067526936616032205 5.1698909945943040e-11 -1.3630547824471216e-10 -1.2597184729609092e-11 0.00065867957040476055 37.813509013000001 185.98771463999995 152.49007815000002 1568.1286420541724 0.0000000000000000 0.0000000000000000 0.0000000000000000 0.0000000000000000 0.75440892704332485 0.18970986754464911 0.015901910524927790 0.12609165090673213 3918.6854969491546 0.12610278793827451 0.0000000000000000 
38.147591448815135 202.06246358119674 167.89543081349998 38.147591448815128 202.06246358119677 167.89543081349996 -4.5498636202846106 -4.2796227576660094e-07 9.5264623330986021e-08 -1.5110687532773165e-06 -3.9494605577661792 -1.3719016788454889e-05 -1.0452066140920202e-06 -0.00017772811535293753 0.00061842994221887929 7.2368192575362621e-11 -7.5854044089176141e-11 3.4824287346806493e-10 0.00053546510888439417 37.755586870999998 201.59457435000007 166.06645798000000 1115.6658590402926 0.0000000000000000 0.0000000000000000 0.0000000000000000 0.0000000000000000 0.75438078803724506 0.18969565621188536 0.015900116201026323 0.12609407273796366 3919.7464133323747 0.12609566295876945 0.0000000000000000 
65.264658820245700 203.81681118048860 148.98693573283785 65.264658820245657 203.81681118048860 148.98693573283791 -5.9944281098340007 8.3487263387690047e-07 1.4697261227291289e-06 -7.5279076173370085e-07 0.0000000000000000 -1.8982793117136594e-05 -3.8453499464218893e-06 -0.00015887131689262891 0.00077604789346030030 -5.4693021280797955e-11 -1.6254448319122218e-10 6.9701087998144734e-11 0.0000000000000000 64.706898088665852 203.32599865957309 147.35284761981995 1170.9507322714735 0.0000000000000000 0.0000000000000000 0.0000000000000000 0.0000000000000000 0.75429383637037928 0.18965202156016372 0.015894641972670692 0.12607183783376941 3917.3234010321189 0.12607394268767538 0.0000000000000000 
58.489217964996882 219.28751970437517 155.65366948122718 58.489217964996890 219.28751970437503 155.65366948122715 -7.0664019453181357 6.7057917993764530e-07 1.7216856712953822e-06 -1.1534484555612503e-06 0.0000000000000000 -1.7943033093048566e-05 -1.1027604663871315e-06 -0.00016594314279355646 0.00083384261736039263 4.1213318058129848e-11 -2.6848479075492657e-10 4.1539388406480619e-11 0.0000000000000000 57.976517148132935 218.79386635806736 153.94597399654558 871.12382118538517 0.0000000000000000 0.0000000000000000 0.0000000000000000 0.0000000000000000 0.75419127003756992 0.18960022192298925 0.015888101871996903 0.12606606736714066 3916.1703927038025 0.12604801351215092 0.0000000000000000 
106.96712403183381 203.42437035090140 169.33412336817113 106.96712403183386 203.42437035090131 169.33412336817116 -5.5598747357642635 1.8127193100003976e-09 3.2333947791201884e-07 -4.3992721012377786e-07 0.0000000000000000 -2.8009655129890287e-05 -1.0497571316103738e-06 -0.00017911312454982342 0.00088901980163554322 -1.3428565944410820e-10 8.6374567282970023e-11 -6.2650534990977324e-11 0.0000000000000000 106.16678147036436 202.95444406841523 167.49089761680582 1451.6544664497774 0.0000000000000000 0.0000000000000000 0.0000000000000000 0.0000000000000000 0.75439175456180108 0.18970117959445221 0.015900811607671633 0.12608430857771541 3917.9220502202470 0.12609841614999681 0.0000000000000000 
93.556430197305517 213.96960465120657 154.15329953391165 93.556430197305474 213.96960465120662 154.15329953391165 -6.9169302303333060 -4.9468610951602604e-07 9.0263156964848218e-07 -1.2194433255764610e-06 0.0000000000000000 -2.5224873425766514e-05 -1.0849917907451712e-06 -0.00016449875762009070 0.00084874277312482510 -5.2192783669351127e-11 -1.0592417722474122e-10 3.0073011592417758e-11 0.0000000000000000 92.835659459041835 213.48390549527133 152.46046799605259 1374.0431229362807 0.0000000000000000 0.0000000000000000 0.0000000000000000 0.0000000000000000 0.75416353879090858 0.18958643150635590 0.015886387740175995 0.12605752348712346 3916.0209618588556 0.12604121395022630 0.0000000000000000 
106.59785132180527 179.22223165942557 169.04200990182923 106.59785132180525 179.22223165942552 169.04200990182923 -5.4411890876321385 1.0919186765780312e-06 -3.6190647962790105e-07 -3.8193143885510464e-08 0.0000000000000000 -2.7932974247246722e-05 -9.6889086553808568e-07 -0.00017883191100981352 0.00077096424999104161 -5.4790399192727244e-11 -1.6567727983224916e-10 -1.4217517949363746e-10 0.0000000000000000 105.79969982540383 178.78850535694073 167.20167807608388 2450.7686744678872 0.0000000000000000 0.0000000000000000 0.0000000000000000 0.0000000000000000 0.75412814167054976 0.18956852362205745 0.015884123164814686 0.12604993806010636 3919.6648123301675 0.12603222451796284 0.0000000000000000 
76.342100516637061 193.70509731177052 158.75459923536425 76.342100516637032 193.70509731177060 158.75459923536434 -5.1903347017767638 2.1021190251066972e-07 1.0081368967919563e-06 -7.0876475512392817e-07 0.0000000000000000 -2.0196297947700835e-05 -1.1862157254822360e-05 -0.00016660590470972189 0.00075142327181392302 -1.9702949787143827e-11 -7.8873459933920071e-11 1.2221736298434357e-10 0.0000000000000000 75.717375094302042 193.21622810126507 157.03338180528999 1144.4826376458880 0.0000000000000000 0.0000000000000000 0.0000000000000000 0.0000000000000000 0.75447685071146564 0.18974423173450938 0.015906256674778390 0.12608741912745347 3917.2635321234843 0.12612000832294570 0.0000000000000000 
121.27219646483194 178.36747898920854 134.86906521355363 121.27219646483194 178.36747898920854 134.86906521355360 -6.6552529199798105 -1.6912232973684217e-07 -6.9099392133785424e-07 -8.5023272193006836e-07 -6.6688096193956019 -3.0980157963378385e-05 -9.6603488475288657e-07 -0.00014593409472357655 0.00063585482620234259 9.2503420323587618e-12 -3.9626846162314774e-11 8.1698477524880626e-11 0.00065969291925947575 120.38697531999998 177.93503117000000 133.36727978000002 3315.6872353797526 0.0000000000000000 0.0000000000000000 0.0000000000000000 0.0000000000000000 0.75435043715298122 0.18968045393399641 0.015898212687563532 0.12606420270167729 3915.6665107615427 0.12608808319457968 0.0000000000000000 
123.31285821596958 151.05450185976369 167.94955709715308 123.31285821596957 151.05450185976366 167.94955709715308 -6.5944511358390372 7.6733371402754345e-08 1.2226897469895082e-07 2.8189157200328403e-07 0.0000000000000000 -3.1403909159399841e-05 -8.7477440888217274e-07 -0.00017778022195397145 0.00037869198715988060 1.3007453584123796e-10 -2.0752775496374442e-10 -3.2991681893815693e-11 0.0000000000000000 122.41552888508200 150.66290700972726 166.12004804243418 2788.4559803272532 0.0000000000000000 0.0000000000000000 0.0000000000000000 0.0000000000000000 0.75394956395404078 0.18947869749887272 0.015872827426845336 0.12604677279371468 3918.5083460726446 0.12598746276576051 0.0000000000000000 
103.98083773508112 159.43419787479996 152.66189070739938 103.98083773508114 159.43419787479993 152.66189070739938 -5.6747312724882306 7.5875279856786944e-07 -7.5409418062307169e-07 -5.2408157376831559e-07 0.0000000000000000 -3.4451150384978097e-05 -7.1151761642548151e-06 -0.00015927077763844245 0.00033266819517406560 -5.1871987656436550e-11 -2.9559107985650893e-11 -5.0898676728094209e-11 0.0000000000000000 103.16264437007636 159.03337825173907 151.00577047027593 2614.5647304445974 0.0000000000000000 0.0000000000000000 0.0000000000000000 0.0000000000000000 0.75387394108811501 0.18944079697566829 0.015868078613892549 0.12603093721031911 3920.9687783880154 0.12596863586369805 0.0000000000000000 
136.31960696183364 135.58663718725052 211.39085397385648 136.31960696183364 135.58663718725052 211.39085397385651 -4.8581570701339221 4.5254156071645625e-07 1.1513860232432551e-06 -1.1117710471858640e-06 -4.1441698403319336 -3.4104810129498727e-05 -8.2309184495921173e-07 -0.00021960055134456752 0.00059634066440483930 -6.2795879388294423e-11 -1.9238721053332111e-10 3.0628849991984451e-12 0.00065051867701407457 135.34510260000002 135.21817816000001 209.13097830999999 2383.2023779596761 0.0000000000000000 0.0000000000000000 0.0000000000000000 0.0000000000000000 0.75437554173311161 0.18969298285414940 0.015899775720591307 0.12609035591462062 3918.8867013800941 0.12609431561763226 0.0000000000000000 
117.22358982694571 101.47245580049068 192.48201574401432 117.22358982694571 101.47245580049069 192.48201574401432 -5.6151200285254736 -4.5532964564797896e-07 -4.7839162413939912e-07 -1.1393668789222503e-06 -6.2140908734010560 -3.0139449361643585e-05 -7.0910660129874802e-07 -0.00020139727703866184 0.00040455791396531732 4.9920993587003731e-11 8.5230004696440673e-11 3.4827473698958951e-11 0.00048333951816508658 116.36239092999996 101.15502254000000 190.40946719000002 2640.5657475930620 0.0000000000000000 0.0000000000000000 0.0000000000000000 0.0000000000000000 0.75463170809529523 0.18982223680348434 0.015916079646996505 0.12609035591462056 3914.0071326031316 0.12615901935183382 0.0000000000000000 
122.63294063673416 108.46210775585001 222.65841353746126 122.63294063673416 108.46210775584998 222.65841353746129 -4.0826199239298777 -5.6046450892431928e-07 -1.3232064807793996e-06 -1.5336481156163218e-07 -3.2861829212825038 -3.1262721682356331e-05 -7.3246102924635303e-07 -0.00023044767346330725 0.00050189322024152207 1.0206766304048428e-10 1.1162516321512131e-10 -9.6609747495203622e-11 0.00044177105735580525 121.73964556999999 108.13421982999998 220.28691180000004 1907.3938422647439 0.0000000000000000 0.0000000000000000 0.0000000000000000 0.0000000000000000 0.75432968978947745 0.18966983788578443 0.015896855088881678 0.12609035591462056 3920.8641330874680 0.12608272767048628 0.0000000000000000 
105.58731625516421 122.28770954297848 208.96097636182228 105.58731625516425 122.28770954297850 208.96097636182222 -3.8721641816897545 7.1328955032081888e-08 -6.3660179794616831e-08 -1.3298027160050632e-06 0.0000000000000000 -2.7723132787926822e-05 -7.7865633046902971e-07 -0.00021726134214222759 0.00052648056935293000 -5.5574631106844451e-11 -8.4625526282831106e-11 8.8003093245910135e-11 0.0000000000000000 104.79516072874441 121.93914218401807 206.72517314201556 2433.5838456336692 0.0000000000000000 0.0000000000000000 0.0000000000000000 0.0000000000000000 0.75431717324805281 0.18966366988092845 0.015896095392236461 0.12609035591462064 3921.3247512371759 0.12607972116862506 0.0000000000000000 
38.155182745474605 163.53918353232703 156.39238488068966 38.155182745474590 163.53918353232706 156.39238488068972 -2.8351557266781722 3.4759871488232728e-07 7.6107452743313785e-07 5.6544321550565810e-07 -3.1009015928933792 -1.3720593149690871e-05 -9.1648931760390795e-07 -0.00016665429377898944 0.00024377905387191427 -1.2364866621959820e-10 -1.9583906363962889e-10 1.4781754655633728e-10 0.00027638544492519123 37.763133124999982 163.12891490999996 154.67737105000003 1609.7391759139125 0.0000000000000000 0.0000000000000000 0.0000000000000000 0.0000000000000000 0.75424278367998443 0.18962632408692043 0.015891408318484353 0.12609763094861912 3922.6727789136253 0.12606112080709958 0.0000000000000000 
38.193037332172516 176.73222736652230 168.05874718503665 38.193037332172523 176.73222736652227 168.05874718503668 -3.2447591952643458 2.1279386550182002e-07 4.3585754313079811e-07 -5.3705277646378550e-07 -4.1755343262713449 -1.3728453796657545e-05 -9.6057104398417081e-07 -0.00017788533772694626 0.00034729561841515796 -5.2519158924141899e-11 -1.8168127804132989e-10 4.0332454464435275e-11 0.00051250663287807810 37.800763103000001 176.30222544999998 166.22815640000002 1278.4532315353756 0.0000000000000000 0.0000000000000000 0.0000000000000000 0.0000000000000000 0.75429248852059583 0.18965134434876549 0.015894557059757515 0.12609035591462031 3921.1098118222940 0.12607362278904247 0.0000000000000000 
29.660080231592971 164.05258095870107 177.09643312501200 29.660080231592982 164.05258095870110 177.09643312501200 -2.5015439313485697 2.9671439366798158e-07 3.2473007695610229e-07 -8.3654390546743151e-07 -2.6404158031631306 -1.1956552719573715e-05 -9.1820470576875479e-07 -0.00018658579167379896 0.00019875469172040563 -3.3730269480420473e-11 -3.2202167611326125e-11 -8.9630173498117009e-12 0.00024385911773523521 29.318435967000010 163.64154443000001 175.17630729999999 1176.2421003033126 0.0000000000000000 0.0000000000000000 0.0000000000000000 0.0000000000000000 0.75440973706038605 0.18971029960757743 0.015901967970689112 0.12609035591462039 3921.9701806164371 0.12610300871092517 0.0000000000000000 
45.766867231402450 139.75758073429671 177.50364987439380 45.766867231402472 139.75758073429677 177.50364987439386 -2.1972972907861266 -1.2227937466378105e-06 3.0829629666438087e-07 -2.0050463061843412e-07 0.0000000000000000 -1.5301188457383930e-05 -8.3702816591757490e-07 -0.00018697781354831688 -4.1692092724771451e-05 6.0687178363490889e-10 -3.6039217236731133e-10 -1.8513983825520444e-10 0.0000000000000000 45.329653981089926 139.38288308181924 175.57948981227980 1838.0408446142237 0.0000000000000000 0.0000000000000000 0.0000000000000000 0.0000000000000000 0.75421773855568819 0.18961344243149228 0.015889752606922828 0.12609473055359827 3925.6165273997508 0.12605460910470787 0.0000000000000000 
59.172247978523536 137.45578482633769 225.02022527277117 59.172247978523529 137.45578482633772 225.02022527277117 -1.7350769904548689 1.0364941171798730e-07 4.9698860315755175e-07 -4.9257853056632389e-07 -1.8799571910910056 -1.8084866878653738e-05 -8.2933720768618702e-07 -0.00023272135662771867 0.00026346897734365869 -5.4908912226257536e-11 -1.0393782038331280e-12 8.1520371689840579e-11 0.00016567903704667441 58.655494429999983 137.08453005000001 222.62532541000004 1283.0721019573000 0.0000000000000000 0.0000000000000000 0.0000000000000000 0.0000000000000000 0.75434859931588771 0.18967938699298134 0.015898060500442349 0.12609035591462059 3924.0805676044015 0.12608752791758063 0.0000000000000000 
37.729433278797494 150.65017565527981 221.01254909786746 37.729433278797494 150.65017565527981 221.01254909786752 -1.7861390738299054 2.9434587891063328e-07 1.8519146842112851e-07 -2.2005984716377996e-07 -2.0180276853444954 -1.3632184648559864e-05 -8.7342342855456501e-07 -0.00022886322277043680 0.00023823287548452483 -2.9773753850857461e-11 -1.6525824097833769e-11 3.9319353338478275e-11 0.00024419956903900099 37.339909825999996 150.25918557000000 218.65735269999999 1388.6032526015726 0.0000000000000000 0.0000000000000000 0.0000000000000000 0.0000000000000000 0.75434966772440604 0.18968003302540673 0.015898155406437103 0.12609035591462059 3923.7992143362617 0.12608788950085686 0.0000000000000000 
59.629653322098306 159.17482433859493 205.73880756220930 59.629653322098306 159.17482433859499 205.73880756220930 -2.0273640933593509 4.9405512207280820e-07 -1.1021216471623974e-07 -8.3627295636707503e-08 -2.1184091360795003 -1.8179848842003855e-05 -9.0190672391636961e-07 -0.00021415940526153763 0.00028531729784155556 -1.2639972733983563e-10 3.8396895934457003e-11 1.6239020600834774e-11 0.00035607245478619463 59.110185776999977 158.77108363999997 203.53492589999999 1913.3477276736232 0.0000000000000000 0.0000000000000000 0.0000000000000000 0.0000000000000000 0.75428311844876650 0.18964661297022903 0.015893959819194062 0.12609035591462045 3923.6155443640314 0.12607124529736999 0.0000000000000000 
45.771148600051554 132.07057833355412 200.02466900186766 45.771148600051532 132.07057833355418 200.02466900186758 -1.9129240495572251 -3.9954786024488063e-07 -9.9173278875163560e-08 2.9125318340968879e-07 0.0000000000000000 -1.5302077496893082e-05 -8.1134368634661058e-07 -0.00020865848391621330 0.00023411529434713438 5.5405742143987442e-11 -4.4305790636691582e-12 -4.0085823986389629e-11 0.0000000000000000 45.333909946406948 131.70737839773392 197.87739647919071 1878.7089811415260 0.0000000000000000 0.0000000000000000 0.0000000000000000 0.0000000000000000 0.75444784210012761 0.18972940403050578 0.015904362496966903 0.12609336940985899 3923.3151929468413 0.12611247578340945 0.0000000000000000 
73.825055402748490 182.88260538067826 194.26519742554967 73.825055402748518 182.88260538067831 194.26519742554959 -2.6776381526084649 3.1342286651912884e-07 -4.7431674256856167e-07 1.2384622237044718e-07 -2.0730504287969613 -2.1127578209378939e-05 -9.8112122159932369e-07 -0.00020311392113731008 0.00045484581838281421 -2.6164774486691419e-10 1.8436057896602718e-10 -7.5288987129964016e-11 0.00062851462602225492 73.221359999000001 182.44340413000006 192.17498315000009 1916.8989385598338 0.0000000000000000 0.0000000000000000 0.0000000000000000 0.0000000000000000 0.75480526875169418 0.18990905358808863 0.015926936085084463 0.12612295045627828 3918.9183996127213 0.12620196958804794 0.0000000000000000 
82.901690301108900 141.96706266138781 211.76410584585878 82.901690301108871 141.96706266138787 211.76410584585878 -2.8406992510848896 2.8891106940823719e-07 3.1201996260828965e-07 -1.9782763670272267e-07 -2.0402445876537620 -2.3012376053510586e-05 -8.4441067074725328e-07 -0.00021995987569883857 0.00045288383945990904 -9.2661362485604590e-11 -1.7218794410063818e-10 1.1331437170126607e-10 0.00058555322257028408 82.244139041999972 141.58906020999996 209.50053243000002 2596.9063225776295 0.0000000000000000 0.0000000000000000 0.0000000000000000 0.0000000000000000 0.75446044051702388 0.18973581216005245 0.015905177174932065 0.12609730684643861 3922.1922848068339 0.12611569807170253 0.0000000000000000 
97.427347334665484 151.22307065163267 179.34683055795904 97.427347334665527 151.22307065163258 179.34683055795904 -4.1784852405574311 1.8248026145915856e-06 4.6080061947327196e-08 -4.5978244305234973e-07 0.0000000000000000 -3.5049611700550526e-05 -1.4705525860109381e-05 -0.00019591707728493568 9.6590552944681791e-05 -4.9005994956782434e-10 -4.7102044314044143e-10 -7.3879286523595516e-10 0.0000000000000000 96.634805924592328 150.82018211309926 177.41298922508184 2674.5721001240636 0.0000000000000000 0.0000000000000000 0.0000000000000000 0.0000000000000000 0.75401745784589391 0.18951260846747703 0.015877061464815198 0.12604674906284735 3923.1224650077497 0.12600427695173519 0.0000000000000000 
111.03767231757772 161.22199757319979 196.78126889336593 111.03767231757773 161.22199757319967 196.78126889336605 -5.4150664408150835 1.4842423642042441e-06 2.0728999419444955e-07 -5.2706423756998912e-08 0.0000000000000000 -2.8854919999876660e-05 -9.0874691557885089e-07 -0.00020553610797507949 0.00069483925816472803 9.2119488151180394e-12 -8.0219303519497446e-11 -3.3038810410069193e-11 0.0000000000000000 110.21317731831955 160.81519484644704 194.66612826377516 2907.4611518241991 0.0000000000000000 0.0000000000000000 0.0000000000000000 0.0000000000000000 0.75417352907577107 0.18959138501002101 0.015887001854449519 0.12604757918257886 3918.7899592949402 0.12604363249358788 0.0000000000000000 
69.413202700352741 138.14453201652566 192.89208478481228 69.413202700352727 138.14453201652574 192.89208478481220 -1.8381427545998226 3.2577990167652898e-07 4.6424635039597502e-07 1.2496564581361498e-06 0.0000000000000000 -2.0211440183381946e-05 -8.3163851313794456e-07 -0.00020179204477227544 1.6099088955210856e-05 -1.5561405257967828e-10 -2.5388352367842521e-10 -6.9804792500879877e-10 0.0000000000000000 68.835684850694804 137.77224705707783 190.81547373645992 2302.4579037184249 0.0000000000000000 0.0000000000000000 0.0000000000000000 0.0000000000000000 0.75421639870304924 0.18961280261533486 0.015889676238778568 0.12610106580893110 3926.9605197765527 0.12605437008002751 0.0000000000000000 
84.558662788362895 175.35393405849763 176.41191326182195 84.558662788362909 175.35393405849757 176.41191326182198 -3.5817629524719772 7.7833715136060671e-07 5.3190056854447658e-07 -3.7678281985653403e-07 0.0000000000000000 -3.0103473607748982e-05 -1.3947431369742815e-05 -0.00018981065517195491 0.00053500718557984381 -2.5835608859963898e-10 -1.5771286260787534e-10 -4.8462608221420191e-11 0.0000000000000000 83.849638243891135 174.91172786385235 174.51222656391082 1667.9065348682720 0.0000000000000000 0.0000000000000000 0.0000000000000000 0.0000000000000000 0.75465322931212475 0.18983244429291976 0.015917285673640594 0.12609029372474717 3919.0489345477249 0.12616362129359937 0.0000000000000000 
102.10451205499329 227.20912365465648 183.39823364610751 102.10451205499329 227.20912365465645 183.39823364610749 -5.8196355631341889 -8.4831397603728901e-07 6.6063041978345655e-07 1.8419447515938266e-07 -6.1750748836648786 -2.6999915211989297e-05 -1.1292288081832247e-06 -0.00019265244695793046 0.00085119070997112837 2.1054264695816329e-10 -1.9327826378244251e-10 1.2800992238342430e-10 0.00076733564336409893 101.33302161000000 226.70362169000003 181.41567680000000 527.87335979314730 0.0000000000000000 0.0000000000000000 0.0000000000000000 0.0000000000000000 0.75434908784285082 0.18967972647462125 0.015898115021039855 0.12609035591462042 3916.9136799088219 0.12608773026861050 0.0000000000000000 
110.06654250882076 213.32651472398013 194.14655771923671 110.06654250882072 213.32651472398007 194.14655771923665 -5.2087459890268795 2.4920151395113845e-07 5.4998507942855263e-08 -6.2325191150581840e-08 -4.9248871294472369 -2.8653261202993274e-05 -1.0828430230258590e-06 -0.00020299970832676759 0.00085567356656153796 -3.3611945648130468e-10 2.4556774642737640e-10 2.8344844775991119e-11 0.00094810669613578172 109.24780967000000 212.84177746000000 192.05751878999999 1255.4436111582911 0.0000000000000000 0.0000000000000000 0.0000000000000000 0.0000000000000000 0.75435054859048989 0.18968050722361254 0.015898218989167687 0.12609035591462037 3918.3101511069276 0.12608813792447429 0.0000000000000000 
92.393159471833357 213.50106178396615 179.91351374437428 92.393159471833329 213.50106178396615 179.91351374437423 -5.5651688451238481 6.4635890799135135e-08 1.1256828952739554e-06 -1.2261268345728422e-06 0.0000000000000000 -2.4983315816740074e-05 -1.0834262540448947e-06 -0.00018929775583037545 0.00080127672526414959 6.3279920668459457e-11 -3.8822617612405267e-10 2.1147683854772273e-10 0.0000000000000000 91.679290954562077 213.01606344388193 177.96547951144200 663.90724330950775 0.0000000000000000 0.0000000000000000 0.0000000000000000 0.0000000000000000 0.75435868840206366 0.18968441022061275 0.015898685666443438 0.12608764426877975 3917.6140665420976 0.12608998427277832 0.0000000000000000 
64.560362137822864 212.14767050768162 168.49607158132238 64.560362137822892 212.14767050768174 168.49607158132233 -5.4773676397481790 1.1168595019230478e-06 1.5790654171893657e-06 -9.8779636013520130e-07 0.0000000000000000 -1.9725373505064454e-05 -2.9928432139401078e-06 -0.00017702391100966376 0.00070669834481657836 -1.1763945222695482e-10 -3.4458618262510336e-10 2.3319320755644009e-11 0.0000000000000000 64.005185165032174 211.65254642520509 166.67194214610197 754.86350931875324 0.0000000000000000 0.0000000000000000 0.0000000000000000 0.0000000000000000 0.75442676771634598 0.18971854292882726 0.015902963940385813 0.12609092545571438 3917.0783146456379 0.12610693606029566 0.0000000000000000 
61.427428496323913 184.90017570105169 164.59702819658111 61.427428496323941 184.90017570105184 164.59702819658108 -3.9238152220369176 -2.0610627437674850e-07 7.2090061915508509e-08 -3.4338019966918396e-07 0.0000000000000000 -1.8553163714518650e-05 -9.8786250196658543e-07 -0.00017455278922756667 0.00053980059417926666 -9.4020686442279267e-11 -5.7331373206032491e-12 1.0647980884055829e-10 0.0000000000000000 60.897293923099205 184.45795670032331 162.80073215801758 1456.3555990979894 0.0000000000000000 0.0000000000000000 0.0000000000000000 0.0000000000000000 0.75460037363626176 0.18980616905048822 0.015914020804827341 0.12612476314042720 3918.1826678403127 0.12615077766709651 0.0000000000000000 
88.979182637355876 196.50282009752993 140.47916162997589 88.979182637355876 196.50282009752999 140.47916162997583 -6.3855913178260924 1.4215679576041418e-07 1.0904916540821190e-06 -5.0390454133777378e-07 0.0000000000000000 -2.4274390519385406e-05 -1.0266302408745709e-06 -0.00015133485615986819 0.00080358967396853946 1.0999387354831468e-11 -9.6911628712911376e-11 5.2103778823179640e-11 0.0000000000000000 88.285570817050015 196.04324661832075 138.92179778727578 2284.4992455537940 0.0000000000000000 0.0000000000000000 0.0000000000000000 0.0000000000000000 0.75429588737782416 0.18965300348606223 0.015894759173114063 0.12605953794519234 3916.3578770250938 0.12607443124315279 0.0000000000000000 
82.489951283755616 174.92281816778313 155.49208955453406 82.489951283755602 174.92281816778311 155.49208955453412 -4.2832282576578882 4.2902616836364458e-07 4.7693914215245094e-07 -3.2006826282875983e-07 0.0000000000000000 -2.3564634117759824e-05 -1.6245422618823852e-05 -0.00016498881437029272 0.00050327725986265407 3.3865326663537318e-11 -2.6990931542543621e-10 1.2051708171670061e-10 0.0000000000000000 81.814121362732124 174.46733636348887 153.79871785113039 1849.3455604645501 0.0000000000000000 0.0000000000000000 0.0000000000000000 0.0000000000000000 0.75427488942385779 0.18964211364778399 0.015893348317445825 0.12607462159616481 3921.2258072034306 0.12606871544599618 0.0000000000000000 
77.248594334038359 237.99210524499037 173.36496034698430 77.248594334038344 237.99210524499037 173.36496034698436 -7.4989284168646755 2.7867272882813960e-07 -7.7990844659004421e-08 -9.1020635635136034e-07 -7.2601757172044197 -2.1838489126901898e-05 -1.1652578382204126e-06 -0.00018299355499279413 0.00095346289362686530 -4.3211400671723958e-11 1.4261004095774222e-11 -5.6130151569995601e-11 0.00097156081638597261 76.624585496999998 237.47047479999995 171.48180167999999 450.61312636181810 0.0000000000000000 0.0000000000000000 0.0000000000000000 0.0000000000000000 0.75442637837171422 0.18971884250017571 0.015903063889568258 0.12609035591462039 3913.2683271453866 0.12610735552017768 0.0000000000000000 
67.181991515046278 237.83008101972538 157.59992491415105 67.181991515046292 237.83008101972533 157.59992491415102 -8.5456416345504405 -6.9387954869939515e-08 -4.9919408490568491e-08 -9.2252949272215424e-07 -8.9712219291607447 -1.9748120669572636e-05 -1.1647164590566918e-06 -0.00016781677568927789 0.00091191729096044860 3.5700003297518945e-11 7.7913203629415745e-12 -2.8063969008915726e-11 0.00091857741693713625 66.617712469000011 237.30869291999991 155.87294816000005 715.16986369778181 0.0000000000000000 0.0000000000000000 0.0000000000000000 0.0000000000000000 0.75427714210047259 0.18964332247918941 0.015893510126570760 0.12606924136706918 3911.9861076744496 0.12606945704007469 0.0000000000000000 
87.919172263539409 237.44195410480918 148.64359831937389 87.919172263539409 237.44195410480918 148.64359831937392 -8.3695272961852361 -4.2765451320603119e-07 -3.7833284751775063e-08 -4.9841574227497834e-07 -9.4453349535318853 -2.4054275323204255e-05 -1.1634196245282430e-06 -0.00015919464525809834 0.00088876425519396980 1.6980241293230201e-11 -3.2488212748668814e-11 -3.8199839616365167e-11 0.00089495558843822101 87.231849972999981 236.92114653999997 147.00535059000001 1226.5804134212974 0.0000000000000000 0.0000000000000000 0.0000000000000000 0.0000000000000000 0.75436620037370239 0.18968831476706208 0.015899192534334364 0.12607330820567431 3911.3921068747072 0.12609200097392906 0.0000000000000000 
87.709485110954063 225.28373553997343 163.90788912686324 87.709485110954105 225.28373553997338 163.90788912686324 -7.1983615336179119 -5.0073669266833455e-07 6.7354226744002769e-07 -6.3961164639863973e-07 0.0000000000000000 -2.4010732984913744e-05 -1.1227955314940807e-06 -0.00017388936467915839 0.00091242586406559308 3.7100653728253271e-11 -1.1689099788811818e-10 -8.3665524045520998e-11 0.0000000000000000 87.023406990868523 224.78111344523825 162.11842028882040 681.06850806740897 0.0000000000000000 0.0000000000000000 0.0000000000000000 0.0000000000000000 0.75427242483407764 0.18964084516474458 0.015893185403028479 0.12607151174823680 3915.2173486128791 0.12606817476087684 0.0000000000000000 
87.506042353381048 196.93228328393403 187.80541549642419 87.506042353381019 196.93228328393400 187.80541549642425 -4.0864555860965179 6.6652617982636543e-07 -1.5037704507827013e-07 -3.2807214525941347e-07 0.0000000000000000 -2.3968487322056919e-05 -1.0280652103511478e-06 -0.00019689517934334821 0.00069008901527877365 -4.1982935112659103e-10 3.7400379644959706e-10 6.8671027106485234e-11 0.0000000000000000 86.821171352877627 196.47206744171046 185.77919734079927 1095.9217422697654 0.0000000000000000 0.0000000000000000 0.0000000000000000 0.0000000000000000 0.75428500485317340 0.18964729236556888 0.015894011331875291 0.12609040428396492 3921.3479169218208 0.12607146395649146 0.0000000000000000 
30.365824570808641 214.93492266563968 132.38114275767927 30.365824570808634 214.93492266563970 132.38114275767927 -5.5640657266733946 6.1845103095802443e-08 4.6931520659585194e-07 6.1628344479748997e-08 -6.0247216903852312 -1.2103103223886999e-05 -1.0882171798121121e-06 -0.00014353900655489360 0.00073314107708552219 -1.4294606460673095e-11 -7.7363973229553856e-11 -2.1019926670071302e-11 0.00077226412691681922 30.019992800000004 214.44777965000000 130.90400481000003 1639.8558849024062 0.0000000000000000 0.0000000000000000 0.0000000000000000 0.0000000000000000 0.75432531981187456 0.18966782117796432 0.015896624222710935 0.12609035591462042 3917.7527228778295 0.12608180779689879 0.0000000000000000 