# For a description of the Tecplot format see the Tecplot User's guide.
#
Variables=x,y,z,s_u,s_v,s_w,s_p,mono_f_vel_u,mono_f_vel_v,mono_f_vel_w,const,u_nu,v_nu,w_nu,p_nu,x_nu,y_nu,z_nu,const,u_ref,v_ref,w_ref,vol_ref,x_ref,y_ref,z_ref,const,I1,I2,I3,J,p1,p2,p3
Zone f=fepoint, n=246, e=987, et=brick, c=black
39.3493 187.705 159.196 39.349300219295934 187.70542966755107 159.19598579093008 -15.028286618209300 -8.8990053021693918e-07 3.4837387809912093e-07 -2.7979217040712377e-07 -13.708419939779644 -6.9308472294693493e-09 -7.9964923571651509e-12 -3.8809923297300486e-07 -0.00039493489305884313 -9.3467286296739489e-11 9.7290611560260466e-10 1.2215207409376538e-10 -0.00035775820478469936 37.813509013000001 185.98771463999995 152.49007815000002 1568.1286420541724 0.0000000000000000 0.0000000000000000 0.0000000000000000 0.0000000000000000 0.76725048022561115 0.19620758215174258 0.016723832918247257 0.12927695939331288 3791.7095776448537 0.12932083968198563 0.0000000000000000 
39.290024773192975 203.40263128148561 173.31040186860054 39.290024773192968 203.40263128148570 173.31040186860048 -14.092872568175398 -1.4425534814253017e-06 5.5754214589965296e-08 -5.0579665964486539e-06 -11.914152762571943 -6.9247427791907496e-09 -8.4017237611533346e-12 -4.1923768834273289e-07 -0.00051643453414191686 -1.9624713041956160e-10 1.8817566736231966e-10 -9.0571015882056727e-10 -0.00055875540960518221 37.755586870999998 201.59457435000007 166.06645798000000 1115.6658590402926 0.0000000000000000 0.0000000000000000 0.0000000000000000 0.0000000000000000 0.76713015262973139 0.19614524456360616 0.016715759078186381 0.12928351634431232 3795.5205730899170 0.12928943550615793 0.0000000000000000 
66.888783100438999 205.22004381715448 153.82767909697870 66.888783100438999 205.22004381715453 153.82767909697861 -19.049659422963973 3.1248671215992343e-06 5.6459856237481798e-06 -2.6149839028227199e-06 0.0000000000000000 -3.0084616044287220e-06 4.2411245076106591e-06 1.5953757009872289e-07 -0.00058988654686921134 -2.0152139244751766e-10 -4.4620054465140507e-10 4.2254578884119344e-10 0.0000000000000000 64.706898088665852 203.32599865957309 147.35284761981995 1170.9507322714735 0.0000000000000000 0.0000000000000000 0.0000000000000000 0.0000000000000000 0.76681168309607395 0.19598383196035540 0.016695308549163641 0.12920100571338997 3787.1491468399913 0.12921019156370506 0.0000000000000000 
59.983400767365353 220.70148315074258 160.70957925260456 59.983400767365325 220.70148315074249 160.70957925260458 -22.977031616265855 2.4840885714128449e-06 6.5301525961841138e-06 -4.4258639592623283e-06 0.0000000000000000 -9.0568308408478515e-09 -8.8788976171372269e-12 -3.9143846053413256e-07 -0.00067068257142114372 -2.6532920970186746e-10 -2.3377866101482904e-10 3.7692447366288178e-10 0.0000000000000000 57.976517148132935 218.79386635806736 153.94597399654558 871.12382118538517 0.0000000000000000 0.0000000000000000 0.0000000000000000 0.0000000000000000 0.76643210640494275 0.19578650289841093 0.016669666162614824 0.12917884220797163 3782.8218805226488 0.12911105231824740 0.0000000000000000 
109.29959172452428 204.77037274487373 174.79129250094547 109.29959172452433 204.77037274487370 174.79129250094550 -17.175552058863587 -7.5013184987919412e-08 1.0839831544346495e-06 -1.4811803020911816e-06 0.0000000000000000 -1.4138006987352013e-08 -8.4492413066072913e-12 -4.2250472742644263e-07 -0.0010933789621543433 5.6189429866349299e-10 -8.3534989860650619e-10 6.1508463668568043e-10 0.0000000000000000 106.16678147036436 202.95444406841523 167.49089761680582 1451.6544664497774 0.0000000000000000 0.0000000000000000 0.0000000000000000 0.0000000000000000 0.76717715103458373 0.19616937413069702 0.016718852211171156 0.12925151965081977 3789.9683783187511 0.12930133066143992 0.0000000000000000 
95.656998806014926 215.36078503630995 159.16520217717078 95.656998806014883 215.36078503630998 159.16520217717073 -22.161520850940885 -1.9713995614822018e-06 3.4437860531953225e-06 -4.6352405273349874e-06 0.0000000000000000 -1.2732379373048276e-08 -8.7456708541822081e-12 -3.8803132818010511e-07 -0.00060548599240366771 1.3196777833646392e-10 5.6324022431875497e-11 4.1435417294049575e-10 0.0000000000000000 92.835659459041835 213.48390549527133 152.46046799605259 1374.0431229362807 0.0000000000000000 0.0000000000000000 0.0000000000000000 0.0000000000000000 0.76637255998629739 0.19575833563321743 0.016666362113553431 0.12915499620903798 3782.3097456397572 0.12909827747466615 0.0000000000000000 
108.92393351317480 180.46454702511409 174.49061109790142 108.92393351317473 180.46454702511411 174.49061109790151 -16.970165525184008 4.1178564370431405e-06 -1.4811245555884557e-06 9.2071306407122511e-08 0.0000000000000000 -1.4099305944981209e-08 -7.8088646660035010e-12 -4.2184138604461907e-07 -3.3678002688514991e-05 -2.9663800427831674e-10 1.6338157826888727e-09 1.0573161009182083e-09 0.0000000000000000 105.79969982540383 178.78850535694073 167.20167807608388 2450.7686744678872 0.0000000000000000 0.0000000000000000 0.0000000000000000 0.0000000000000000 0.76629834242714134 0.19571896738858910 0.016661165839501443 0.12913194506316419 3795.0056168086599 0.12907804373551093 0.0000000000000000 
78.158222652639097 195.09834193285340 163.85574541198059 78.158222652639097 195.09834193285349 163.85574541198051 -16.064744630164480 6.9772595802069803e-07 3.7554770490248519e-06 -2.7438761914259176e-06 0.0000000000000000 -8.4090704944770045e-06 6.1876247165400982e-05 3.0209708533141459e-06 -0.00069508988753108365 -2.9229149334827967e-10 -5.3748147537927993e-10 -4.3172537210086765e-10 0.0000000000000000 75.717375094302042 193.21622810126507 157.03338180528999 1144.4826376458880 0.0000000000000000 0.0000000000000000 0.0000000000000000 0.0000000000000000 0.76750713573594753 0.19634193785297296 0.016741401223571647 0.12926549547108190 3787.0382805142503 0.12938864953531268 0.0000000000000000 
123.85202892734169 179.60613241553614 139.31534484369033 123.85202892734172 179.60613241553617 139.31534484369033 -21.561423152035033 -6.3874212610297861e-07 -3.0113016881097848e-06 -3.5037084464535234e-06 -21.521107691712867 -1.5637379613409049e-08 -7.7853279378814477e-12 -3.4423968320318465e-07 0.0016125612031644822 -3.1061873034604009e-10 1.0242954545395216e-09 -4.5371747654831934e-10 0.0018290390479980473 120.38697531999998 177.93503117000000 133.36727978000002 3315.6872353797526 0.0000000000000000 0.0000000000000000 0.0000000000000000 0.0000000000000000 0.76705574931254705 0.19610827123435856 0.016711175220809112 0.12917814957330201 3780.8250885963275 0.12927122799832239 0.0000000000000000 
125.92797800936937 152.17614077476080 173.36611572224163 125.92797800936935 152.17614077476080 173.36611572224172 -21.584526720662215 3.4271766187846711e-07 2.8045946021167212e-07 1.1072817831328182e-06 0.0000000000000000 -1.5851270740441237e-08 -7.0349281955373044e-12 -4.1936060246605688e-07 0.0038917066577262628 -1.5277095084939746e-09 2.1709800067865656e-09 3.7542539085936125e-10 0.0000000000000000 122.41552888508200 150.66290700972726 166.12004804243418 2788.4559803272532 0.0000000000000000 0.0000000000000000 0.0000000000000000 0.0000000000000000 0.76552983415069054 0.19532526276497239 0.016610748333267263 0.12911237022963579 3790.6098684790718 0.12888358732184840 0.0000000000000000 
106.35722413132420 160.57535946789980 157.57003076579727 106.35722413132424 160.57535946789983 157.57003076579724 -18.155344882022334 2.8604659686487215e-06 -3.1838939804786320e-06 -2.1521686242892381e-06 0.0000000000000000 3.8534179980631976e-06 7.4645394499025529e-05 7.1453224996555311e-06 0.0040192729207172992 4.6512362191658889e-10 6.8456731902755355e-10 8.0590063576515935e-10 0.0000000000000000 103.16264437007636 159.03337825173907 151.00577047027593 2614.5647304445974 0.0000000000000000 0.0000000000000000 0.0000000000000000 0.0000000000000000 0.76531723698343002 0.19521873875812459 0.016597400681999143 0.12905908203552327 3799.1632619192023 0.12883191601498339 0.0000000000000000 
139.15964077959001 136.64200853216900 218.08158282655978 139.15964077959003 136.64200853216900 218.08158282655978 -15.414358078432267 1.7339084409702878e-06 4.3581365990671275e-06 -4.1438799074898852e-06 -12.807913181825764 -1.7214564218377189e-08 -6.6129324238772840e-12 -5.1800933698054063e-07 0.00042746392082485213 -9.2925896350146760e-11 -3.8622672564108494e-10 3.8261253809583915e-10 -0.00010029646926837504 135.34510260000002 135.21817816000001 209.13097830999999 2383.2023779596761 0.0000000000000000 0.0000000000000000 0.0000000000000000 0.0000000000000000 0.76711887816438107 0.19613895835864678 0.016714890290050376 0.12927221338962469 3791.8698443118456 0.12928614054678095 0.0000000000000000 
119.73341337102738 102.38167485137348 198.61813227057942 119.73341337102738 102.38167485137346 198.61813227057942 -18.429627009366445 -1.8024122865504507e-06 -1.9111284517046583e-06 -4.3282200196851533e-06 -20.672024294833466 -1.5213027948490776e-08 -5.7042148782215918e-12 -4.7507018252623823e-07 0.0030755866496618330 2.2836725755833820e-10 1.3089870965266959e-11 2.2532103662768854e-09 0.0015552371174634013 116.36239092999996 101.15502254000000 190.40946719000002 2640.5657475930620 0.0000000000000000 0.0000000000000000 0.0000000000000000 0.0000000000000000 0.76809521526265023 0.19664448853480390 0.016780300951045993 0.12927221338962466 3773.4165611023277 0.12953977987823428 0.0000000000000000 
125.23630322608822 109.40127193882334 229.67962950648084 125.23630322608821 109.40127193882333 229.67962950648084 -12.737364108756013 -2.2467828161371509e-06 -5.1358303588957410e-06 -5.1744369466487630e-07 -9.6366987395938128 -1.5780006857149156e-08 -5.8955064390734394e-12 -5.4359631129852737e-07 0.00026882883372280849 1.0855721851660474e-10 1.8753142225873044e-10 -1.0507685513870072e-10 0.00017220053360956385 121.73964556999999 108.13421982999998 220.28691180000004 1907.3938422647439 0.0000000000000000 0.0000000000000000 0.0000000000000000 0.0000000000000000 0.76694018149272736 0.19604641879275725 0.016702916352247413 0.12927221338962464 3799.0921941203173 0.12923973813805764 0.0000000000000000 
107.89592417121465 123.28610549806160 215.58043483512625 107.89592417121462 123.28610549806167 215.58043483512628 -11.845199403054142 3.0272873311261962e-07 -2.8005385341066283e-07 -5.0012850365016470e-06 0.0000000000000000 -1.3993388447985922e-08 -6.2634342157252839e-12 -5.1249145571752308e-07 0.00024057638143706796 1.5839013063796467e-10 8.1408046164022339e-10 1.4902863425844454e-10 0.0000000000000000 104.79516072874441 121.93914218401807 206.72517314201556 2433.5838456336692 0.0000000000000000 0.0000000000000000 0.0000000000000000 0.0000000000000000 0.76690207026335055 0.19602858503699927 0.016700840518143838 0.12927221338962466 3800.9240313228174 0.12923178962358903 0.0000000000000000 
39.297747339327636 164.71430943697408 161.46996180374870 39.297747339327643 164.71430943697402 161.46996180374876 -8.5487477141005925 1.2133798627093159e-06 2.7378745633579403e-06 2.2700519341753405e-06 -9.5082625983658922 -6.9255368106979631e-09 -7.3879791173681042e-12 -3.9311595600999278e-07 0.0027556237395689703 5.9717196065589711e-10 1.4230492938608437e-09 -1.3629524397396412e-09 0.0029236041690968387 37.763133124999982 163.12891490999996 154.67737105000003 1609.7391759139125 0.0000000000000000 0.0000000000000000 0.0000000000000000 0.0000000000000000 0.76661737345464176 0.19588468847013149 0.016682665852314350 0.12928396212447052 3804.8568922555696 0.12916119013395422 0.0000000000000000 
39.336256511395106 177.96387503259814 173.47850844837808 39.336256511395106 177.96387503259808 173.47850844837811 -10.114256620062223 7.3381817642590960e-07 1.4561873595293714e-06 -1.6702306963740649e-06 -13.432079451134713 -6.9295065241448128e-09 -7.7182704671940867e-12 -4.1960854191280816e-07 0.00078056658380871297 2.6309328424080590e-10 1.3159824567053264e-09 9.5278906138265424e-10 0.00010212486764276371 37.800763103000001 176.30222544999998 166.22815640000002 1278.4532315353756 0.0000000000000000 0.0000000000000000 0.0000000000000000 0.0000000000000000 0.76689793438093534 0.19602780089739638 0.016700920022976153 0.12927221338962461 3798.2025311679195 0.12923211460403808 0.0000000000000000 
30.655746647350085 165.22990636538998 182.78127741255349 30.655746647350096 165.22990636538998 182.78127741255346 -7.7373563655302222 1.0829115317840470e-06 1.2583388785031779e-06 -2.8219528560788248e-06 -8.3743458091945353 -6.0351267390807095e-09 -7.3830941360597535e-12 -4.4013178901458621e-07 0.0016202324020079988 1.5893051459087810e-10 2.8875285892522405e-10 1.2618479632578413e-09 0.00080074598981955982 29.318435967000010 163.64154443000001 175.17630729999999 1176.2421003033126 0.0000000000000000 0.0000000000000000 0.0000000000000000 0.0000000000000000 0.76732426572069568 0.19624580408662726 0.016728783012329520 0.12927221338962458 3800.8437157765825 0.12933988341063110 0.0000000000000000 
47.041053848815132 140.83082127445641 183.20043817593933 47.041053848815160 140.83082127445641 183.20043817593941 -6.5768543578976528 -4.1332640034654072e-06 1.3466578401166253e-06 -4.3283394132374594e-07 0.0000000000000000 -7.7233521800224042e-09 -6.7401639824993254e-12 -4.4105652663439798e-07 0.0040284997089940575 -3.9220468314121163e-09 4.6806550466411081e-09 4.2857220062388867e-09 0.0000000000000000 45.329653981089926 139.38288308181924 175.57948981227980 1838.0408446142237 0.0000000000000000 0.0000000000000000 0.0000000000000000 0.0000000000000000 0.76629064025123739 0.19571235791885047 0.016659955144263716 0.12925561827785850 3816.5682090341138 0.12907423592429315 0.0000000000000000 
60.678241805468566 138.51916399100264 232.11071519106770 60.678241805468581 138.51916399100264 232.11071519106778 -5.1792928114514050 1.9508837600689675e-07 1.8388829661307746e-06 -1.7388983629138177e-06 -5.7362036038619459 -9.1284220182785719e-09 -6.6892047456690315e-12 -5.4895964596290980e-07 -2.1014854024125232e-05 2.2226424131704977e-11 -4.3403015342081436e-10 2.1357354167424364e-10 0.00062546515166752984 58.655494429999983 137.08453005000001 222.62532541000004 1283.0721019573000 0.0000000000000000 0.0000000000000000 0.0000000000000000 0.0000000000000000 0.76699348083623853 0.19607412613092426 0.016706509744690835 0.12927221338962477 3808.9652184073107 0.12925390754824087 0.0000000000000000 
38.864635769500154 151.77008235218102 227.98549046142182 38.864635769500161 151.77008235218099 227.98549046142176 -5.4052217389013082 1.0805575848651943e-06 5.6591112043757103e-07 -7.0726082530592985e-07 -6.1615863134375024 -6.8809110631562492e-09 -7.0173866717482253e-12 -5.3985878545326226e-07 2.1836722632132439e-05 -1.1278472590502527e-10 -1.4585735029690726e-10 1.5186296594800754e-10 0.00012833457033548386 37.339909825999996 150.25918557000000 218.65735269999999 1388.6032526015726 0.0000000000000000 0.0000000000000000 0.0000000000000000 0.0000000000000000 0.76700555891702038 0.19608196226897537 0.016707724495543332 0.12927221338962475 3807.9619632686235 0.12925838706768120 0.0000000000000000 
61.143556648841916 160.33125241488349 212.26375708094710 61.143556648841916 160.33125241488349 212.26375708094704 -6.0857474125601039 1.7490312432807756e-06 -4.8955029061844113e-07 -1.9850098042930797e-07 -6.6048346258304642 -9.1763636700971337e-09 -7.2672995298380110e-12 -5.0517439499133445e-07 0.00013338405899470513 1.7108371218767409e-10 8.6692294447289599e-11 -1.3857892845290817e-10 -0.00091503697246210784 59.110185776999977 158.77108363999997 203.53492589999999 1913.3477276736232 0.0000000000000000 0.0000000000000000 0.0000000000000000 0.0000000000000000 0.76687976613090592 0.19601830665490980 0.016699681739105191 0.12927221338962480 3806.4609170017425 0.12922719225322438 0.0000000000000000 
47.045409251327065 133.11088614634190 206.38201797104733 47.045409251327087 133.11088614634184 206.38201797104736 -5.7401181295218695 -1.3831699170927262e-06 -3.1085887017987316e-07 9.7436266376792803e-07 0.0000000000000000 -7.7237947137323704e-09 -6.5439875740480602e-12 -4.9219841202514522e-07 0.00036216035302614606 -1.3785353098472027e-10 1.6308543683217245e-10 -3.2999680533087616e-10 0.0000000000000000 45.333909946406948 131.70737839773392 197.87739647919071 1878.7089811415260 0.0000000000000000 0.0000000000000000 0.0000000000000000 0.0000000000000000 0.76745169514410738 0.19631007833621436 0.016736885946552708 0.12928249365635439 3805.5971569328144 0.12937078825956483 0.0000000000000000 
75.584427068406086 184.14060255359891 200.45361618921163 75.584427068406072 184.14060255359891 200.45361618921160 -7.8364755656971639 6.8895258803688951e-07 -1.8226568186756015e-06 4.6257995718243354e-07 -5.8490763749531238 -1.0664251703929040e-08 -7.8916873036405377e-12 -4.7911950518120250e-07 -0.00023768241720530448 9.8379372094514897e-10 -1.2567633586996034e-09 3.7656944292456272e-10 -0.0031895369710954889 73.221359999000001 182.44340413000006 192.17498315000009 1916.8989385598338 0.0000000000000000 0.0000000000000000 0.0000000000000000 0.0000000000000000 0.76873952588002592 0.19696765958536627 0.016820814465212001 0.12938585954761037 3791.5222450272367 0.12969518120029067 0.0000000000000000 
84.818016062097570 143.04976908462453 218.46578249379152 84.818016062097527 143.04976908462456 218.46578249379155 -8.4464760030366683 6.4399267766083605e-07 1.0662138309374806e-06 -7.2911613617081448e-07 -5.3867035123221134 -1.1615610251425322e-08 -6.8096639438408602e-12 -5.1885693630460139e-07 0.00011905335940606756 1.0020609659793595e-09 7.8962126854036793e-10 -3.4237012965645182e-10 -0.00091964561155069807 82.244139041999972 141.58906020999996 209.50053243000002 2596.9063225776295 0.0000000000000000 0.0000000000000000 0.0000000000000000 0.0000000000000000 0.76746348989828461 0.19631726421002632 0.016737947665317384 0.12929488097081088 3803.4325591945221 0.12937475861214812 0.0000000000000000 
99.724908761224597 152.37167569545167 185.07957669178117 99.724908761224597 152.37167569545173 185.07957669178114 -13.108189737360505 6.4998873550465362e-06 5.5470597703148845e-08 -1.6812556275866302e-06 0.0000000000000000 2.9065896487436177e-05 0.00014039560777463894 9.5521133961633625e-05 0.0050257077368834760 2.2452936145180853e-09 4.7630871784809699e-09 6.8790103023533627e-09 0.0000000000000000 96.634805924592328 150.82018211309926 177.41298922508184 2674.5721001240636 0.0000000000000000 0.0000000000000000 0.0000000000000000 0.0000000000000000 0.76566751066009331 0.19539232216124788 0.016618884366347567 0.12908842379906441 3808.0044950536098 0.12891541636292281 0.0000000000000000 
113.44052834590629 162.38719616815135 203.04348617561129 113.44052834590636 162.38719616815129 203.04348617561121 -17.354096637653218 5.5793241329389351e-06 7.3921212543670307e-07 -1.7379353364314619e-07 0.0000000000000000 -1.4564659478466522e-08 -7.3042683013113674e-12 -4.8483314629699237e-07 0.00020071951540729822 -1.3687540424237251e-09 2.8582650643313676e-10 1.7076449707046355e-10 0.0000000000000000 110.21317731831955 160.81519484644704 194.66612826377516 2907.4611518241991 0.0000000000000000 0.0000000000000000 0.0000000000000000 0.0000000000000000 0.76637781223995449 0.19576013890310842 0.016666492132153696 0.12910895960827787 3791.5580883455737 0.12909849945107166 0.0000000000000000 
71.096284159629604 139.21086191832586 199.04022898551736 71.096284159629647 139.21086191832589 199.04022898551736 -5.2875276474660291 6.7145842993490692e-07 1.9862281340493434e-06 4.1237108606593288e-06 0.0000000000000000 -1.0201828493094922e-08 -6.6890937233665682e-12 -4.7600137098591233e-07 0.0032245832661712231 -1.1341939381062020e-09 3.9810882295781889e-09 5.3319196359250581e-09 0.0000000000000000 68.835684850694804 137.77224705707783 190.81547373645992 2302.4579037184249 0.0000000000000000 0.0000000000000000 0.0000000000000000 0.0000000000000000 0.76611793560299768 0.19562461698324818 0.016648799819576524 0.12926463570393854 3822.6977309379040 0.12903192280358944 0.0000000000000000 
86.613408976498732 176.61376944527427 182.04505264333167 86.613408976498718 176.61376944527427 182.04505264333156 -10.688821835406046 2.4641417243534139e-06 1.5637092015929311e-06 -1.0427809385722968e-06 0.0000000000000000 1.5295302998757064e-05 0.00012197850688831217 7.4549126466936675e-05 0.00041788930946565374 1.5876813218055762e-10 -1.3490577596486273e-11 1.0267717418468936e-09 0.0000000000000000 83.849638243891135 174.91172786385235 174.51222656391082 1667.9065348682720 0.0000000000000000 0.0000000000000000 0.0000000000000000 0.0000000000000000 0.76818758451811575 0.19668294599596400 0.016784099214006924 0.12926327897963061 3792.7836464413663 0.12955209642615528 0.0000000000000000 
104.35289496600890 228.65702491054216 189.26791510890959 104.35289496600889 228.65702491054213 189.26791510890959 -18.048117304207096 -3.0766307218905902e-06 2.3649485879299996e-06 7.3959625477304954e-07 -19.290659006667664 -1.3628339567972603e-08 -9.1020524450868834e-12 -4.5444224494595176e-07 -0.00087092359511742323 -6.7594392385263975e-10 8.1185392512455133e-10 -7.6928520696682796e-10 -0.00033128948927969474 101.33302161000000 226.70362169000003 181.41567680000000 527.87335979314730 0.0000000000000000 0.0000000000000000 0.0000000000000000 0.0000000000000000 0.76702091985955190 0.19608958119305564 0.016708670117735414 0.12927221338962469 3786.3519969285003 0.12926206322147113 0.0000000000000000 
112.45260566156391 214.71493997722001 200.33149667929092 112.45260566156391 214.71493997722004 200.33149667929092 -16.028621265307340 8.8088647141118447e-07 1.2105325906508358e-07 -1.0311114955262548e-07 -14.984223392294920 -1.4462876896104149e-08 -8.7252427505291053e-12 -4.7885009046844118e-07 -0.0010132927560610426 1.8657266149436126e-09 -1.4837316331818698e-09 -1.8570104538285674e-10 -0.0015859361368696038 109.24780967000000 212.84177746000000 192.05751878999999 1255.4436111582911 0.0000000000000000 0.0000000000000000 0.0000000000000000 0.0000000000000000 0.76704093779172655 0.19610046295481440 0.016710144249175270 0.12927221338962475 3790.8501507923161 0.12926769873034472 0.0000000000000000 
94.473612684651428 214.89023483334822 185.68098540522300 94.473612684651457 214.89023483334827 185.68098540522300 -17.232749145930338 2.1225346450603075e-07 3.9161494873271463e-06 -4.0622734444179234e-06 0.0000000000000000 -1.2610448019145792e-08 -8.7296836426276059e-12 -4.4652896513674984e-07 -0.00084226234474660364 -7.0015599386490361e-10 1.0836328786921546e-09 -9.0667882517428546e-10 0.0000000000000000 91.679290954562077 213.01606344388193 177.96547951144200 663.90724330950775 0.0000000000000000 0.0000000000000000 0.0000000000000000 0.0000000000000000 0.76705793001517608 0.19610646106451168 0.016710562788998132 0.12926155514884652 3788.5820200693120 0.12926925849543525 0.0000000000000000 
66.175127467074660 213.56344524195171 173.90008844508236 66.175127467074631 213.56344524195171 173.90008844508245 -17.221714033501673 3.8831856529236348e-06 5.7804268788051896e-06 -3.5933422161813817e-06 0.0000000000000000 -2.4847162094270498e-06 4.9813605536242419e-06 -2.9073231384505532e-07 -0.00065585334437868190 9.4890121275979208e-12 3.7707414592761919e-10 1.2551865067598605e-11 0.0000000000000000 64.005185165032174 211.65254642520509 166.67194214610197 754.86350931875324 0.0000000000000000 0.0000000000000000 0.0000000000000000 0.0000000000000000 0.76728809347902671 0.19622265225903962 0.016725228175844639 0.12926950528423556 3786.5275954853287 0.12932581770880225 0.0000000000000000 
62.972419134525900 186.16681656755412 169.91525429434088 62.972419134525872 186.16681656755409 169.91525429434085 -11.995216947454313 -1.0726707726490477e-06 -2.7864067650814667e-08 -1.0260419612044433e-06 0.0000000000000000 -9.3648011567637468e-09 -7.9596329527475973e-12 -4.1174749143557676e-07 4.4222061527043562e-05 1.0267249863625194e-09 8.3821011416107711e-11 -2.8492499977877186e-10 0.0000000000000000 60.897293923099205 184.45795670032331 162.80073215801758 1456.3555990979894 0.0000000000000000 0.0000000000000000 0.0000000000000000 0.0000000000000000 0.76791000524383690 0.19654548181383816 0.016767106341887276 0.12939094022193304 3789.9690067451875 0.12948768935848240 0.0000000000000000 
91.000601014958363 197.81916912135853 145.08999016499777 91.000601014958349 197.81916912135867 145.08999016499777 -20.364306259974921 3.6674821100617677e-07 4.0378522822507855e-06 -1.9174519877703467e-06 0.0000000000000000 -1.2252616476970957e-08 -8.2622797492604150e-12 -3.5697939559931063e-07 -0.00023004237140303871 -5.1858802446830718e-10 -1.8221596801721437e-10 -8.9571245697194745e-11 0.0000000000000000 88.285570817050015 196.04324661832075 138.92179778727578 2284.4992455537940 0.0000000000000000 0.0000000000000000 0.0000000000000000 0.0000000000000000 0.76686181429990807 0.19600882393392402 0.016698419430302439 0.12916211232140720 3783.4844710103894 0.12922256754553144 0.0000000000000000 
84.451499446516252 176.22101652968885 160.51070983388027 84.451499446516223 176.22101652968882 160.51070983388033 -13.047479591837963 1.2903124123925391e-06 1.6139600446823060e-06 -1.3082243051121273e-06 0.0000000000000000 -1.0972672898079501e-05 0.00013018498478950047 1.6899319824175673e-05 0.0015762515979179958 -1.0464499349963652e-09 1.7396553775535960e-09 -6.0950563917493099e-10 0.0000000000000000 81.814121362732124 174.46733636348887 153.79871785113039 1849.3455604645501 0.0000000000000000 0.0000000000000000 0.0000000000000000 0.0000000000000000 0.76675830534478817 0.19595093097096894 0.016690370293665727 0.12920564460617134 3801.1160241574098 0.12918946175899262 0.0000000000000000 
79.067166183663730 239.48620305116421 178.94035736060087 79.067166183663730 239.48620305116418 178.94035736060093 -24.130494138928551 9.1032564302485973e-07 -2.7130074920823746e-07 -3.4186332682450057e-06 -23.132829138595522 -1.1023085777495110e-08 -9.3798302458480975e-12 -4.3165816188128764e-07 -0.0012966030473964066 1.4399045424775293e-10 -3.7184384401693457e-11 2.8401417276575438e-10 -0.0015367928895439582 76.624585496999998 237.47047479999995 171.48180167999999 450.61312636181810 0.0000000000000000 0.0000000000000000 0.0000000000000000 0.0000000000000000 0.76730053059927916 0.19623613200630868 0.016727861442502320 0.12927221338962477 3773.1564168656987 0.12933629987548298 0.0000000000000000 
68.826490643205517 239.32348468020234 162.71292001461066 68.826490643205503 239.32348468020243 162.71292001461069 -28.237016021451275 -4.5183576745975884e-07 -2.0682720799883355e-07 -3.5980152332053667e-06 -29.813429827538965 -9.9679544593640103e-09 -9.3631772958602059e-12 -3.9585809941122818e-07 -0.00067854828112196941 1.7990837734036090e-10 6.7906483993130445e-12 5.6521920541575247e-10 -0.00055938380465983800 66.617712469000011 237.30869291999991 155.87294816000005 715.16986369778181 0.0000000000000000 0.0000000000000000 0.0000000000000000 0.0000000000000000 0.76674395125852679 0.19594472637512422 0.016689738244211324 0.12919110247987520 3767.8914729137327 0.12918865329240006 0.0000000000000000 
89.922260833770892 238.93369494833772 153.49389673450554 89.922260833770892 238.93369494833772 153.49389673450557 -27.494056153802557 -1.6636450340715196e-06 -1.3267394696564019e-07 -1.9215360916967205e-06 -31.573813161758284 -1.2141512904793532e-08 -9.3696179768355161e-12 -3.7551960763160258e-07 -0.00061454540753096685 5.6450072805593304e-11 8.6730812526142766e-11 2.8194245812602714e-10 -0.00054249078954702278 87.231849972999981 236.92114653999997 147.00535059000001 1226.5804134212974 0.0000000000000000 0.0000000000000000 0.0000000000000000 0.0000000000000000 0.76708514417428841 0.19612219707514097 0.016712808765303701 0.12920847761849430 3765.7325116006391 0.12927803549806832 0.0000000000000000 
89.708947749581483 226.72338803014262 169.20590218890695 89.708947749581498 226.72338803014273 169.20590218890686 -23.053869427249790 -1.9112376877537857e-06 2.4860864568209077e-06 -2.6243062308985503e-06 0.0000000000000000 -1.2119539372079657e-08 -9.0412122233374248e-12 -4.1018257079805664e-07 -0.0011028326532566276 -1.0694089912250138e-10 1.9206274297016119e-10 5.6386740814308848e-10 0.0000000000000000 87.023406990868523 224.78111344523825 162.11842028882040 681.06850806740897 0.0000000000000000 0.0000000000000000 0.0000000000000000 0.0000000000000000 0.76675792373434748 0.19595033122092906 0.016690254046469080 0.12920278794855933 3780.0543044364026 0.12919073020222124 0.0000000000000000 
89.501987039119086 198.25047221795083 193.80436335560702 89.501987039119072 198.25047221795091 193.80436335560705 -12.228765474214253 2.2271008722323445e-06 -3.6670160050540767e-07 -1.0610025336448350e-06 0.0000000000000000 -1.2098207990973719e-08 -8.2744922025312901e-12 -4.6445030954522803e-07 -0.00070465340299519631 1.7480135846677511e-09 -1.7895375921066919e-09 -2.0247317029243431e-10 0.0000000000000000 86.821171352877627 196.47206744171046 185.77919734079927 1095.9217422697654 0.0000000000000000 0.0000000000000000 0.0000000000000000 0.0000000000000000 0.76678170360570708 0.19596447890375182 0.016692326965934486 0.12927229525912876 3801.4832793334290 0.12919894102966650 0.0000000000000000 
31.373694789576124 216.33023867518276 136.75444950372167 31.373694789576128 216.33023867518276 136.75444950372164 -17.564512592491308 2.1852735636577914e-07 1.6608821751319975e-06 2.0233634380472042e-07 -19.076334618857206 -6.1090992263083227e-09 -8.7536644599595093e-12 -3.3858998738089952e-07 -0.00039956776590143188 7.2926700346567605e-11 6.0023438200180924e-11 3.2954170115927187e-10 -0.00041284521738839359 30.019992800000004 214.44777965000000 130.90400481000003 1639.8558849024062 0.0000000000000000 0.0000000000000000 0.0000000000000000 0.0000000000000000 0.76692942744516190 0.19604351027114936 0.016702872052513515 0.12927221338962475 3788.6011294758000 0.12923946340407919 0.0000000000000000 