# For a description of the Tecplot format see the Tecplot User's guide.
#
Variables=x,y,z,s_u,s_v,s_w,s_p,mono_f_vel_u,mono_f_vel_v,mono_f_vel_w,const,u_nu,v_nu,w_nu,p_nu,x_nu,y_nu,z_nu,const,u_ref,v_ref,w_ref,vol_ref,x_ref,y_ref,z_ref,const,I1,I2,I3,J,p1,p2,p3
Zone f=fepoint, n=246, e=987, et=brick, c=black
38.2059 186.432 154.183 38.205859320937400 186.43222518038192 154.18320596653672 -4.8301420882698869 -2.5476260285110850e-07 1.7217080068155252e-07 -1.2281515048075924e-07 -4.5012147296767733 -1.3731116333154381e-05 -9.9298152184124099e-07 -0.00016452754811496773 0.00069510379245883388 5.0351617409383772e-11 -1.2156233289854132e-10 -1.4260775095043616e-11 0.00068717969750077708 37.813509013000001 185.98771463999995 152.49007815000002 1568.1286420541724 0.0000000000000000 0.0000000000000000 0.0000000000000000 0.0000000000000000 0.75440967171316187 0.18971024874478865 0.015901959299577745 0.12609166687660395 3918.6753587764774 0.12610297515845775 0.0000000000000000 
38.147591448815135 202.06246358119674 167.89543081349998 38.147591448815128 202.06246358119677 167.89543081349996 -4.5500462657536751 -4.2837090494670100e-07 9.5379197506491381e-08 -1.5120621630520387e-06 -3.9499310533347876 -1.3719016788454885e-05 -1.0452066140920202e-06 -0.00017772811535293753 0.00062775532199907738 7.2759056372368007e-11 -8.0797607557535284e-11 3.5257749530395170e-10 0.00054014460082468460 37.755586870999998 201.59457435000007 166.06645798000000 1115.6658590402926 0.0000000000000000 0.0000000000000000 0.0000000000000000 0.0000000000000000 0.75438333643299116 0.18969694176666468 0.015900278324980581 0.12609411855322822 3919.7237803275775 0.12609630603905958 0.0000000000000000 
65.264675257266859 203.81675834593489 148.98694142981839 65.264675257266859 203.81675834593480 148.98694142981833 -5.9960703874470971 8.3488142084311106e-07 1.4708718015822806e-06 -7.5299801775155988e-07 0.0000000000000000 -1.9220618206541811e-05 -3.5610454264596620e-06 -0.00015896442396030145 0.00079769433143228770 -6.6057270360769218e-11 -1.7084316952333550e-10 6.9700857877480366e-11 0.0000000000000000 64.706898088665852 203.32599865957309 147.35284761981995 1170.9507322714735 0.0000000000000000 0.0000000000000000 0.0000000000000000 0.0000000000000000 0.75429288362247948 0.18965154406211904 0.015894582146775346 0.12607197884770263 3917.3300236558421 0.12607370228308831 0.0000000000000000 
58.489217964996882 219.28751970437517 155.65366948122718 58.489217964996890 219.28751970437503 155.65366948122715 -7.0673244406141578 6.7133593477004490e-07 1.7215221638758534e-06 -1.1537759354826624e-06 0.0000000000000000 -1.7943033093048566e-05 -1.1027604663871313e-06 -0.00016594314279355646 0.00084761190685574866 3.2320810812164609e-11 -2.6722107456792429e-10 4.3916349947469457e-11 0.0000000000000000 57.976517148132935 218.79386635806736 153.94597399654558 871.12382118538517 0.0000000000000000 0.0000000000000000 0.0000000000000000 0.0000000000000000 0.75419182887803415 0.18960050452184260 0.015888137597010295 0.12606615189249121 3916.1637614238384 0.12604815509774117 0.0000000000000000 
106.96712403183381 203.42437035090140 169.33412336817113 106.96712403183386 203.42437035090131 169.33412336817116 -5.5604432845360616 3.6745859849278253e-10 3.2351215349818634e-07 -4.3992089918609930e-07 0.0000000000000000 -2.8009655129890291e-05 -1.0497571316103738e-06 -0.00017911312454982342 0.00092212067404438000 -1.3753082889365329e-10 8.2151485429767781e-11 -5.1670696964596336e-11 0.0000000000000000 106.16678147036436 202.95444406841523 167.49089761680582 1451.6544664497774 0.0000000000000000 0.0000000000000000 0.0000000000000000 0.0000000000000000 0.75438794902863993 0.18969926215129898 0.015900570083397608 0.12608438713529690 3917.9555983394825 0.12609746066909147 0.0000000000000000 
93.556430197305517 213.96960465120657 154.15329953391165 93.556430197305474 213.96960465120662 154.15329953391165 -6.9182008054872002 -4.9597001219468709e-07 9.0211902376161432e-07 -1.2193209611844664e-06 0.0000000000000000 -2.5224873425766511e-05 -1.0849917907451712e-06 -0.00016449875762009067 0.00088259097899649514 -5.5209490274334022e-11 -1.0042638175893141e-10 3.5979232488939717e-11 0.0000000000000000 92.835659459041835 213.48390549527133 152.46046799605259 1374.0431229362807 0.0000000000000000 0.0000000000000000 0.0000000000000000 0.0000000000000000 0.75416686584077519 0.18958810840098425 0.015886599034970746 0.12605793424201550 3915.9887419447728 0.12604204983752473 0.0000000000000000 
106.59785132180527 179.22223165942557 169.04200990182923 106.59785132180525 179.22223165942552 169.04200990182923 -5.4413538419009289 1.0909006838667640e-06 -3.6239669058291518e-07 -3.7285541835310676e-08 0.0000000000000000 -2.7932974247246726e-05 -9.6889086553808568e-07 -0.00017883191100981352 0.00084772762495526641 -4.7765295373148423e-11 -1.2250614869919579e-10 -1.3696296649520104e-10 0.0000000000000000 105.79969982540383 178.78850535694073 167.20167807608388 2450.7686744678872 0.0000000000000000 0.0000000000000000 0.0000000000000000 0.0000000000000000 0.75412965723735348 0.18956929235315845 0.015884220628826148 0.12605134684895575 3919.6500406294649 0.12603261388511780 0.0000000000000000 
76.342091518426315 193.70451341670912 158.75454298323638 76.342091518426301 193.70451341670920 158.75454298323632 -5.1920878867130265 2.1078394971474659e-07 1.0083624523395835e-06 -7.0934799824054770e-07 0.0000000000000000 -2.0897410609945537e-05 -9.3539975971047468e-06 -0.00016651390796247696 0.00078796772093001142 -3.3459291274550756e-11 -8.2270790269366010e-11 1.1120638075200747e-10 0.0000000000000000 75.717375094302042 193.21622810126507 157.03338180528999 1144.4826376458880 0.0000000000000000 0.0000000000000000 0.0000000000000000 0.0000000000000000 0.75448462261252824 0.18974816047324564 0.015906753163104820 0.12608830502185739 3917.1911727521947 0.12612196413382734 0.0000000000000000 
121.27219646483194 178.36747898920854 134.86906521355363 121.27219646483194 178.36747898920854 134.86906521355360 -6.6523512686173225 -1.6991897247077560e-07 -6.8815761177809696e-07 -8.4998881398729894e-07 -6.6657873270547299 -3.0980157963378385e-05 -9.6603488475288678e-07 -0.00014593409472357655 0.00075325037557117086 -1.9810980501692540e-12 -9.1882478432731105e-13 6.8774409499796683e-11 0.00078231348622584624 120.38697531999998 177.93503117000000 133.36727978000002 3315.6872353797526 0.0000000000000000 0.0000000000000000 0.0000000000000000 0.0000000000000000 0.75433719241753738 0.18967378441129942 0.015897373074816673 0.12606454689257307 3915.7882067995070 0.12608476954937611 0.0000000000000000 
123.31285821596958 151.05450185976369 167.94955709715308 123.31285821596957 151.05450185976366 167.94955709715308 -6.5845471186899101 6.6126150781949153e-08 1.2462947034980265e-07 2.8735670604201576e-07 0.0000000000000000 -3.1403909159399834e-05 -8.7477440888217295e-07 -0.00017778022195397147 0.00058655827699782771 7.2827298249194635e-11 -1.1912534152314459e-10 -7.6242198126180957e-12 0.0000000000000000 122.41552888508200 150.66290700972726 166.12004804243418 2788.4559803272532 0.0000000000000000 0.0000000000000000 0.0000000000000000 0.0000000000000000 0.75399003370943152 0.18949908048387876 0.015875393907861749 0.12604773819212906 3918.1594840222328 0.12599761031889445 0.0000000000000000 
103.98034874912533 159.43413379491855 152.66203403537386 103.98034874912535 159.43413379491855 152.66203403537386 -5.6671670569097881 7.5338247239250353e-07 -7.4912689711804823e-07 -5.1961812313259873e-07 0.0000000000000000 -3.4539152339889505e-05 -4.4198404013565686e-06 -0.00015899461987931577 0.00055275395191814263 -4.4195316124470911e-11 -7.9980429194001264e-12 -1.0588730281199852e-11 0.0000000000000000 103.16264437007636 159.03337825173907 151.00577047027593 2614.5647304445974 0.0000000000000000 0.0000000000000000 0.0000000000000000 0.0000000000000000 0.75389558463727346 0.18945168646040103 0.015869448305140206 0.12603257510155133 3920.7828231079484 0.12597405332112574 0.0000000000000000 
136.31960696183364 135.58663718725052 211.39085397385648 136.31960696183364 135.58663718725052 211.39085397385651 -4.8539827616230919 4.5146585834803172e-07 1.1550785246757142e-06 -1.1033844404253740e-06 -4.1489072543889511 -3.4104810129499208e-05 -8.2309184495921173e-07 -0.00021960055134456757 0.00064112017530317791 -7.1689135774694437e-11 -2.1044762029936476e-10 4.6842350226151544e-11 0.00065409951856254685 135.34510260000002 135.21817816000001 209.13097830999999 2383.2023779596761 0.0000000000000000 0.0000000000000000 0.0000000000000000 0.0000000000000000 0.75437729686315169 0.18969390531673810 0.015899896689009100 0.12609035591462062 3918.8775240540863 0.12609479702246862 0.0000000000000000 
117.22358982694571 101.47245580049068 192.48201574401432 117.22358982694571 101.47245580049069 192.48201574401432 -5.6013273825440733 -4.5372222051754493e-07 -4.8012909821982142e-07 -1.1362516744221922e-06 -6.1788110468165138 -3.0139449361643592e-05 -7.0910660129874792e-07 -0.00020139727703866184 0.00054231367482248142 5.8036957226990808e-11 8.8208290562028261e-11 8.2983606985926105e-11 0.00058663747303962937 116.36239092999996 101.15502254000000 190.40946719000002 2640.5657475930620 0.0000000000000000 0.0000000000000000 0.0000000000000000 0.0000000000000000 0.75454739386642766 0.18977961527714338 0.015910693503640879 0.12609035591462056 3914.7966072944250 0.12613762225705202 0.0000000000000000 
122.63294063673416 108.46210775585001 222.65841353746126 122.63294063673416 108.46210775584998 222.65841353746129 -4.0776092310781777 -5.6044384445309177e-07 -1.3181843365728205e-06 -1.4602346163489425e-07 -3.2869778668145964 -3.1262721682357090e-05 -7.3246102924569658e-07 -0.00023044767346330845 0.00052483098165553551 1.0628053049999659e-10 1.3246208322973369e-10 -7.8145558831369382e-11 0.00045079807830254178 121.73964556999999 108.13421982999998 220.28691180000004 1907.3938422647439 0.0000000000000000 0.0000000000000000 0.0000000000000000 0.0000000000000000 0.75433925144928993 0.18967471352977919 0.015897476488031744 0.12609035591462056 3920.7863268886167 0.12608519579274385 0.0000000000000000 
105.58731625516421 122.28770954297848 208.96097636182228 105.58731625516425 122.28770954297850 208.96097636182222 -3.8678742060328868 6.9502972189538341e-08 -6.4598808583417567e-08 -1.3336021663784728e-06 0.0000000000000000 -2.7723132787926815e-05 -7.7865633046902971e-07 -0.00021726134214222761 0.00055924899523433845 -5.1261701745079601e-11 -6.9146620338990715e-11 1.0060813388396857e-10 0.0000000000000000 104.79516072874441 121.93914218401807 206.72517314201556 2433.5838456336692 0.0000000000000000 0.0000000000000000 0.0000000000000000 0.0000000000000000 0.75433873677676599 0.18967452350716343 0.015897461138666084 0.12609035591462064 3921.1337094627393 0.12608513642939598 0.0000000000000000 
38.155182745474605 163.53918353232703 156.39238488068966 38.155182745474590 163.53918353232706 156.39238488068972 -2.8482983308274350 3.4528591881189781e-07 7.5481287891765557e-07 5.6728683315761170e-07 -3.1217271815472056 -1.3720593149690877e-05 -9.1648931760390816e-07 -0.00016665429377898944 0.00032186645501732712 -1.2351286615495343e-10 -1.9406957324691909e-10 1.2174256985287681e-10 0.00031488629508307734 37.763133124999982 163.12891490999996 154.67737105000003 1609.7391759139125 0.0000000000000000 0.0000000000000000 0.0000000000000000 0.0000000000000000 0.75423901658842896 0.18962436252876991 0.015891153242263315 0.12610025756855350 3922.6876206946345 0.12606012514910295 0.0000000000000000 
38.193037332172516 176.73222736652230 168.05874718503665 38.193037332172523 176.73222736652227 168.05874718503668 -3.2473364437330359 2.1231828859176130e-07 4.3299397920838466e-07 -5.4068736955736525e-07 -4.1745580056472154 -1.3728453796657545e-05 -9.6057104398417103e-07 -0.00017788533772694626 0.00037852276615570518 -4.6295622941754321e-11 -1.5109101909515676e-10 7.4391842456863114e-11 0.00054944271606833888 37.800763103000001 176.30222544999998 166.22815640000002 1278.4532315353756 0.0000000000000000 0.0000000000000000 0.0000000000000000 0.0000000000000000 0.75427661916892119 0.18964336896098327 0.015893555020658780 0.12609035591462031 3921.2463735050987 0.12606964910694701 0.0000000000000000 
29.660080231592971 164.05258095870107 177.09643312501200 29.660080231592982 164.05258095870110 177.09643312501200 -2.5068105737314834 2.9546684547986706e-07 3.2228578380396642e-07 -8.3903088420436178e-07 -2.6391406206549126 -1.1956552719573415e-05 -9.1820470576875469e-07 -0.00018658579167379896 0.00024117295624507163 -3.5983218516858285e-11 -3.1206247508705330e-11 3.2009764579439826e-11 0.00027579172643490442 29.318435967000010 163.64154443000001 175.17630729999999 1176.2421003033126 0.0000000000000000 0.0000000000000000 0.0000000000000000 0.0000000000000000 0.75439061402813656 0.18970068103653717 0.015900758469485358 0.12609035591462039 3922.1380692686948 0.12609821074560765 0.0000000000000000 
45.766867231402450 139.75758073429671 177.50364987439380 45.766867231402472 139.75758073429677 177.50364987439386 -2.2058078655504194 -1.2010729008704165e-06 2.9019982311055721e-07 -2.2597258616341753e-07 0.0000000000000000 -1.5301188457383926e-05 -8.3702816591757479e-07 -0.00018697781354831691 7.4105745533038187e-05 5.4032929145120833e-10 -2.1198804149710420e-10 -1.5545328706731364e-10 0.0000000000000000 45.329653981089926 139.38288308181924 175.57948981227980 1838.0408446142237 0.0000000000000000 0.0000000000000000 0.0000000000000000 0.0000000000000000 0.75429383817010665 0.18965175931490716 0.015894575855651790 0.12610183589485743 3924.9008616290675 0.12607370988484268 0.0000000000000000 
59.172247978523536 137.45578482633769 225.02022527277117 59.172247978523529 137.45578482633772 225.02022527277117 -1.7351318580026176 1.0582292824380713e-07 4.9712833657133405e-07 -4.9274146630437687e-07 -1.8820395348380823 -1.8084866878653738e-05 -8.2933720768618723e-07 -0.00023272135662771862 0.00026371022279670134 -5.3982407430756305e-11 -6.7078194386459397e-12 8.6373179319983189e-11 0.00017364123673971031 58.655494429999983 137.08453005000001 222.62532541000004 1283.0721019573000 0.0000000000000000 0.0000000000000000 0.0000000000000000 0.0000000000000000 0.75436330290647191 0.18968679265775099 0.015898992986150860 0.12609035591462059 3923.9488054484541 0.12609121815250024 0.0000000000000000 
37.729433278797494 150.65017565527981 221.01254909786746 37.729433278797494 150.65017565527981 221.01254909786752 -1.7855122077736802 2.9422888964357542e-07 1.8624763725521436e-07 -2.2102598345633815e-07 -2.0199819399289929 -1.3632184648559864e-05 -8.7342342855456501e-07 -0.00022886322277043680 0.00023837785822301960 -2.7845803083465697e-11 -2.4129316790966139e-11 4.5849206257220099e-11 0.00024486859088741601 37.339909825999996 150.25918557000000 218.65735269999999 1388.6032526015726 0.0000000000000000 0.0000000000000000 0.0000000000000000 0.0000000000000000 0.75435757368891998 0.18968400599504551 0.015898654537094294 0.12609035591462059 3923.7287409245100 0.12608986666751962 0.0000000000000000 
59.629653322098306 159.17482433859493 205.73880756220930 59.629653322098306 159.17482433859499 205.73880756220930 -2.0270767704892050 4.9051684317621653e-07 -1.1078205163855284e-07 -8.2238163494660049e-08 -2.1078438919357234 -1.8179848842004065e-05 -9.0190672391498450e-07 -0.00021415940526153809 0.00029612055758565888 -1.2277713721446571e-10 4.3298989767318702e-11 1.3928277575027294e-11 0.00033651289602004491 59.110185776999977 158.77108363999997 203.53492589999999 1913.3477276736232 0.0000000000000000 0.0000000000000000 0.0000000000000000 0.0000000000000000 0.75425516414841742 0.18963254337685381 0.015892189486844951 0.12609035591462045 3923.8727982760024 0.12606423132991607 0.0000000000000000 
45.771148600051554 132.07057833355412 200.02466900186766 45.771148600051532 132.07057833355418 200.02466900186758 -1.9131112728341224 -3.9727780985674536e-07 -9.7500795110795223e-08 2.9557035340742015e-07 0.0000000000000000 -1.5302077496892177e-05 -8.1134368634661058e-07 -0.00020865848391621308 0.00025310170298762188 4.6684595953174331e-11 6.4900831876470758e-12 -2.9953022774367777e-11 0.0000000000000000 45.333909946406948 131.70737839773392 197.87739647919071 1878.7089811415260 0.0000000000000000 0.0000000000000000 0.0000000000000000 0.0000000000000000 0.75441252788632329 0.18971164764951171 0.015902130478318288 0.12609338739433101 3923.6286849835637 0.12610363980972883 0.0000000000000000 
73.825055402748490 182.88260538067826 194.26519742554967 73.825055402748518 182.88260538067831 194.26519742554959 -2.6765639000765820 3.1608281252911035e-07 -4.6990931953030400e-07 1.2298223920542074e-07 -2.0563232714692483 -2.1127578209378939e-05 -9.8112122159932369e-07 -0.00020311392113731006 0.00048018088144664780 -2.9272350970058044e-10 1.6546613939444224e-10 -7.2792283440051731e-11 0.00054098705720974697 73.221359999000001 182.44340413000006 192.17498315000009 1916.8989385598338 0.0000000000000000 0.0000000000000000 0.0000000000000000 0.0000000000000000 0.75475828719733451 0.18988541494857497 0.015923962660390940 0.12612303467848895 3919.3461076935932 0.12619019387724165 0.0000000000000000 
82.901690301108900 141.96706266138781 211.76410584585878 82.901690301108871 141.96706266138787 211.76410584585878 -2.8402928393282001 2.8220555208770369e-07 3.1274920950426887e-07 -1.9892457009486723e-07 -2.0484888401349153 -2.3012376053510586e-05 -8.4441067074725318e-07 -0.00021995987569883857 0.00049480893501466987 -9.6587800595222479e-11 -1.8408451538625985e-10 1.2030196206550526e-10 0.00058924905727291278 82.244139041999972 141.58906020999996 209.50053243000002 2596.9063225776295 0.0000000000000000 0.0000000000000000 0.0000000000000000 0.0000000000000000 0.75443949887632311 0.18972524708290045 0.015903844683194220 0.12609743291761472 3922.3727061168938 0.12611042707241538 0.0000000000000000 
97.425797341104754 151.22222734066375 179.34620375436609 97.425797341104797 151.22222734066375 179.34620375436597 -4.1686203589637909 1.8199067525360097e-06 4.8281416747019473e-08 -4.6026663883448194e-07 0.0000000000000000 -3.4797371885174828e-05 -9.1519384687019224e-06 -0.00019230166730918686 0.00037865857129013388 -3.9045473247318003e-10 -2.6902659076044235e-10 -4.5955381736909068e-10 0.0000000000000000 96.634805924592328 150.82018211309926 177.41298922508184 2674.5721001240636 0.0000000000000000 0.0000000000000000 0.0000000000000000 0.0000000000000000 0.75410923859557177 0.18955877401009855 0.015882866749047878 0.12605302647501374 3922.3173665114482 0.12602724744344748 0.0000000000000000 
111.03767231757772 161.22199757319979 196.78126889336593 111.03767231757773 161.22199757319967 196.78126889336605 -5.4125105899016770 1.4827334652538000e-06 2.0748957372247172e-07 -5.7157279178207248e-08 0.0000000000000000 -2.8854919999876660e-05 -9.0874691557885068e-07 -0.00020553610797507949 0.00077192211050189905 -1.3014903478139637e-11 -8.9809064224720946e-11 -2.9893340585931011e-11 0.0000000000000000 110.21317731831955 160.81519484644704 194.66612826377516 2907.4611518241991 0.0000000000000000 0.0000000000000000 0.0000000000000000 0.0000000000000000 0.75418117252919037 0.18959521861420500 0.015887482538609662 0.12604983407942655 3918.7226814214769 0.12604554591882702 0.0000000000000000 
69.413202700352741 138.14453201652566 192.89208478481228 69.413202700352727 138.14453201652574 192.89208478481220 -1.8413247157654173 3.3696341708885018e-07 4.3390598104870421e-07 1.2174128148328609e-06 0.0000000000000000 -2.0211440183381949e-05 -8.3163851313794456e-07 -0.00020179204477227541 0.00016140706672321546 -2.3839526544229789e-10 -1.1477248207293598e-10 -5.5692539632278073e-10 0.0000000000000000 68.835684850694804 137.77224705707783 190.81547373645992 2302.4579037184249 0.0000000000000000 0.0000000000000000 0.0000000000000000 0.0000000000000000 0.75438778969588460 0.18969906281964735 0.015900529798297647 0.12611398460169859 3925.4065665617704 0.12609735119716980 0.0000000000000000 
84.557497384437269 175.35318667139489 176.41144792414087 84.557497384437269 175.35318667139481 176.41144792414079 -3.5818598423852532 7.8319359216827815e-07 5.3695525440185181e-07 -3.7820868528417695e-07 0.0000000000000000 -3.0416005504459432e-05 -9.2847147217546256e-06 -0.00018705661190906384 0.00061183531482659364 -3.0425780436884200e-10 -1.9830650927336208e-10 -2.9587058707366828e-11 0.0000000000000000 83.849638243891135 174.91172786385235 174.51222656391082 1667.9065348682720 0.0000000000000000 0.0000000000000000 0.0000000000000000 0.0000000000000000 0.75463005533483118 0.18982079568099755 0.015915821880247597 0.12609325264621643 3919.2538409510739 0.12615784304124442 0.0000000000000000 
102.10451205499329 227.20912365465648 183.39823364610751 102.10451205499329 227.20912365465645 183.39823364610749 -5.8198405024602806 -8.4808360119570929e-07 6.6082678927668677e-07 1.8404150519780462e-07 -6.1755188868604440 -2.6999915211989297e-05 -1.1292288081832247e-06 -0.00019265244695793049 0.00087359327467372168 2.0120794440088259e-10 -1.8647874106538809e-10 1.2665541261922549e-10 0.00079133159892596215 101.33302161000000 226.70362169000003 181.41567680000000 527.87335979314730 0.0000000000000000 0.0000000000000000 0.0000000000000000 0.0000000000000000 0.75435177489189453 0.18968107912015134 0.015898285247964050 0.12609035591462042 3916.8894451332808 0.12608840392964538 0.0000000000000000 
110.06654250882076 213.32651472398013 194.14655771923671 110.06654250882072 213.32651472398007 194.14655771923665 -5.2088838194457319 2.4834058716731894e-07 5.4691944251469100e-08 -6.1211337478307180e-08 -4.9246263499598166 -2.8653261202993274e-05 -1.0828430230258588e-06 -0.00020299970832676761 0.00088360648867655820 -3.2060117434507460e-10 2.4295236443002568e-10 1.6273709005207830e-11 0.00096577716344902430 109.24780967000000 212.84177746000000 192.05751878999999 1255.4436111582911 0.0000000000000000 0.0000000000000000 0.0000000000000000 0.0000000000000000 0.75434772624454205 0.18967908688890531 0.015898040295642058 0.12609035591462037 3918.3359158353774 0.12608743063510339 0.0000000000000000 
92.393159471833357 213.50106178396615 179.91351374437428 92.393159471833329 213.50106178396615 179.91351374437423 -5.5657643315721241 6.4283943572266510e-08 1.1252938494097652e-06 -1.2266765626299235e-06 0.0000000000000000 -2.4983315816740070e-05 -1.0834262540448945e-06 -0.00018929775583037547 0.00082261499414598054 5.6032955000502602e-11 -3.8185316457532440e-10 2.1132493679909039e-10 0.0000000000000000 91.679290954562077 213.01606344388193 177.96547951144200 663.90724330950775 0.0000000000000000 0.0000000000000000 0.0000000000000000 0.0000000000000000 0.75435528901513271 0.18968269991394016 0.015898470544332147 0.12608774431114253 3917.6437923684721 0.12608913266762356 0.0000000000000000 
64.560403218671183 212.14764075278779 168.49605407249177 64.560403218671141 212.14764075278794 168.49605407249180 -5.4781339216053890 1.1183861555773207e-06 1.5791724205709008e-06 -9.8835925343440490e-07 0.0000000000000000 -1.9984823166883185e-05 -2.7996798664095481e-06 -0.00017691480037150553 0.00072301649109534130 -1.3302450598088383e-10 -3.4438530020349066e-10 2.7321984165646615e-11 0.0000000000000000 64.005185165032174 211.65254642520509 166.67194214610197 754.86350931875324 0.0000000000000000 0.0000000000000000 0.0000000000000000 0.0000000000000000 0.75442632122774755 0.18971832138310954 0.015902936463895692 0.12609117226856703 3917.0806420898143 0.12610682876244231 0.0000000000000000 
61.427428496323913 184.90017570105169 164.59702819658111 61.427428496323941 184.90017570105184 164.59702819658108 -3.9260329071628819 -2.0661489618158718e-07 7.2011594375581893e-08 -3.4636076968170606e-07 0.0000000000000000 -1.8553163714518650e-05 -9.8786250196658543e-07 -0.00017455278922756667 0.00057883746117505400 -8.1006776945917000e-11 1.8844989462883056e-11 1.1086707744437025e-10 0.0000000000000000 60.897293923099205 184.45795670032331 162.80073215801758 1456.3555990979894 0.0000000000000000 0.0000000000000000 0.0000000000000000 0.0000000000000000 0.75459713021771557 0.18980451072059870 0.015913808889568351 0.12612573840515104 3918.2116990852996 0.12614994467827423 0.0000000000000000 
88.979182637355876 196.50282009752993 140.47916162997589 88.979182637355876 196.50282009752999 140.47916162997583 -6.3863103377258614 1.4349045569161225e-07 1.0910690201812535e-06 -5.0268857283609893e-07 0.0000000000000000 -2.4274390519385403e-05 -1.0266302408745709e-06 -0.00015133485615986819 0.00085271543600578951 -1.9208442049025199e-12 -8.0882007623725341e-11 4.8337575206090105e-11 0.0000000000000000 88.285570817050015 196.04324661832075 138.92179778727578 2284.4992455537940 0.0000000000000000 0.0000000000000000 0.0000000000000000 0.0000000000000000 0.75429613968245002 0.18965313536992370 0.015894776385863670 0.12606001185070695 3916.3553415630154 0.12607449208307750 0.0000000000000000 
82.489627826571876 174.92154269261962 155.49188386990681 82.489627826571891 174.92154269261968 155.49188386990681 -4.2846533903535606 4.2746268712976597e-07 4.8046639232101940e-07 -3.1698599772820547e-07 0.0000000000000000 -2.4611294686696861e-05 -1.1421997328775817e-05 -0.00016442156761206376 0.00063162961408511585 2.4405298248719784e-11 -2.1406294243056368e-10 1.1624294982462265e-10 0.0000000000000000 81.814121362732124 174.46733636348887 153.79871785113039 1849.3455604645501 0.0000000000000000 0.0000000000000000 0.0000000000000000 0.0000000000000000 0.75425827936365952 0.18963373310992815 0.015892291266996320 0.12607863988835363 3921.3707384513154 0.12606458361626413 0.0000000000000000 
77.248594334038359 237.99210524499037 173.36496034698430 77.248594334038344 237.99210524499037 173.36496034698436 -7.4995534474154120 2.7860846257163857e-07 -7.8005248807555907e-08 -9.1047816499892818e-07 -7.2606237975135750 -2.1838489126901894e-05 -1.1652578382204124e-06 -0.00018299355499279415 0.00096824495327320727 -4.5375890081506489e-11 1.3808454300920124e-11 -5.3670978139420474e-11 0.00098460463783380490 76.624585496999998 237.47047479999995 171.48180167999999 450.61312636181810 0.0000000000000000 0.0000000000000000 0.0000000000000000 0.0000000000000000 0.75442648080307506 0.18971889358210678 0.015903070257021475 0.12609035591462039 3913.2663787390625 0.12610738102273497 0.0000000000000000 
67.181991515046278 237.83008101972538 157.59992491415105 67.181991515046292 237.83008101972533 157.59992491415102 -8.5467917776845432 -6.9195755406618210e-08 -4.9904196239186061e-08 -9.2311296885371840e-07 -8.9725712207690158 -1.9748120669571931e-05 -1.1647164590566916e-06 -0.00016781677568927789 0.00092929291905329979 3.1915202484770220e-11 7.3441797805111997e-12 -2.4273239144506931e-11 0.00093649684974823498 66.617712469000011 237.30869291999991 155.87294816000005 715.16986369778181 0.0000000000000000 0.0000000000000000 0.0000000000000000 0.0000000000000000 0.75427799785002148 0.18964375385388180 0.015893564488887180 0.12606934070316367 3911.9764276181745 0.12606967173874178 0.0000000000000000 
87.919172263539409 237.44195410480918 148.64359831937389 87.919172263539409 237.44195410480918 148.64359831937392 -8.3706391548814771 -4.2758504527319666e-07 -3.7871762233254438e-08 -4.9843553240660864e-07 -9.4464566878195448 -2.4054275323204258e-05 -1.1634196245279965e-06 -0.00015919464525809832 0.00091138153559482279 1.4667225306626635e-11 -3.0822635523619492e-11 -3.7020798094659700e-11 0.00091837091626783358 87.231849972999981 236.92114653999997 147.00535059000001 1226.5804134212974 0.0000000000000000 0.0000000000000000 0.0000000000000000 0.0000000000000000 0.75436499518007305 0.18968770798568654 0.015899116160898622 0.12607335716682141 3911.4011200056771 0.12609169785463134 0.0000000000000000 
87.709485110954063 225.28373553997343 163.90788912686324 87.709485110954105 225.28373553997338 163.90788912686324 -7.1992446061183371 -5.0107597709875541e-07 6.7312925588791816e-07 -6.4022747133648420e-07 0.0000000000000000 -2.4010732984913744e-05 -1.1227955314940807e-06 -0.00017388936467915841 0.00093282108668498321 3.5078431698541538e-11 -1.1350082736956424e-10 -7.8720425952025219e-11 0.0000000000000000 87.023406990868523 224.78111344523825 162.11842028882040 681.06850806740897 0.0000000000000000 0.0000000000000000 0.0000000000000000 0.0000000000000000 0.75427232964698054 0.18964079818879095 0.015893179610581825 0.12607164030042700 3915.2167213140601 0.12606815201975655 0.0000000000000000 
87.506042353381048 196.93228328393403 187.80541549642419 87.506042353381019 196.93228328393400 187.80541549642425 -4.0878092671733688 6.6527562571687850e-07 -1.5317978689967233e-07 -3.2966189532747024e-07 0.0000000000000000 -2.3968487322056919e-05 -1.0280652103511478e-06 -0.00019689517934334821 0.00071985976434647695 -4.0798647885152381e-10 3.8599569375457672e-10 7.3726551687253518e-11 0.0000000000000000 86.821171352877627 196.47206744171046 185.77919734079927 1095.9217422697654 0.0000000000000000 0.0000000000000000 0.0000000000000000 0.0000000000000000 0.75430190095929417 0.18965579289726534 0.015895080494319005 0.12609129627626614 3921.1927702208204 0.12607569890138223 0.0000000000000000 
30.365824570808641 214.93492266563968 132.38114275767927 30.365824570808634 214.93492266563970 132.38114275767927 -5.5655858524631405 6.1746689478813352e-08 4.6900729374090948e-07 6.1421861975545492e-08 -6.0264802641853015 -1.2103103223885983e-05 -1.0882171798121121e-06 -0.00014353900655489360 0.00074481908981491589 -1.4441272203111264e-11 -7.4223680053037213e-11 -1.8204568476197180e-11 0.00077754961681104570 30.019992800000004 214.44777965000000 130.90400481000003 1639.8558849024062 0.0000000000000000 0.0000000000000000 0.0000000000000000 0.0000000000000000 0.75432537316014092 0.18966783890097585 0.015896625304422176 0.12609035591462042 3917.7494544404431 0.12608181639116522 0.0000000000000000 