# For a description of the Tecplot format see the Tecplot User's guide.
#
Variables=x,y,z,s_u,s_v,s_w,s_p,mono_f_vel_u,mono_f_vel_v,mono_f_vel_w,const,u_nu,v_nu,w_nu,p_nu,x_nu,y_nu,z_nu,const,u_ref,v_ref,w_ref,vol_ref,x_ref,y_ref,z_ref,const,I1,I2,I3,J,p1,p2,p3
Zone f=fepoint, n=246, e=987, et=brick, c=black
39.3493 187.705 159.196 39.349299908790258 187.70542966615434 159.19597522174314 -15.048524358663453 -8.8707310307940033e-07 3.3542249290330702e-07 -2.8333963767997465e-07 -13.720037743398136 -1.3296740927759567e-05 -2.4131952147676827e-07 -0.00026708257577490180 0.00093652165869755619 5.9922793681682853e-11 -1.0155920245951755e-10 -1.5117851175604885e-11 0.00091682236972963685 37.813509013000001 185.98771463999995 152.49007815000002 1568.1286420541724 0.0000000000000000 0.0000000000000000 0.0000000000000000 0.0000000000000000 0.76724944504675630 0.19620719647716900 0.016723802613133967 0.12927718617272366 3791.6981547824453 0.12932055377381421 0.0000000000000000 
39.290024462960901 203.40263128001527 173.31039045141424 39.290024462960901 203.40263128001521 173.31039045141418 -14.095646667871483 -1.4465897261555077e-06 5.9799581880342433e-08 -5.0689935926288149e-06 -11.917664848897154 -1.3285024142994928e-05 -2.5401153092019513e-07 -0.00028851145825403712 0.00083210800220607768 7.6660756835315708e-11 -8.5432171897054345e-11 4.2562442074039941e-10 0.00067938771467534488 37.755586870999998 201.59457435000007 166.06645798000000 1115.6658590402926 0.0000000000000000 0.0000000000000000 0.0000000000000000 0.0000000000000000 0.76715520529185355 0.19615821112154605 0.016717436490807654 0.12928404829889961 3795.3035311391350 0.12929593011310775 0.0000000000000000 
66.889022062432147 205.21945598395118 153.82775969743045 66.889022062432119 205.21945598395118 153.82775969743037 -19.068457952548261 3.1261367358932331e-06 5.6578509431555162e-06 -2.6155524740909186e-06 0.0000000000000000 -2.0771334129764528e-05 -5.4450515848181189e-06 -0.00025651863922479008 0.0010628767794141727 -1.2835444588136511e-10 -2.9605883886125469e-10 9.3612427799371084e-11 0.0000000000000000 64.706898088665852 203.32599865957309 147.35284761981995 1170.9507322714735 0.0000000000000000 0.0000000000000000 0.0000000000000000 0.0000000000000000 0.76679791787571860 0.19597680475786858 0.016694411888958247 0.12920275373509921 3787.2491114864047 0.12920663451141715 0.0000000000000000 
59.983400361614379 220.70148314919129 160.70956859248042 59.983400361614422 220.70148314919143 160.70956859248051 -22.988417286376755 2.4923261684355192e-06 6.5282257091739471e-06 -4.4276624626383083e-06 0.0000000000000000 -1.7375416296205870e-05 -2.6799856933656940e-07 -0.00026938055369485348 0.0011416126228551715 4.9343843417426416e-12 -3.9643122623709164e-10 7.3897369051595919e-11 0.0000000000000000 57.976517148132935 218.79386635806736 153.94597399654558 871.12382118538517 0.0000000000000000 0.0000000000000000 0.0000000000000000 0.0000000000000000 0.76643773271666638 0.19578943729651319 0.016670048541641284 0.12917984179341346 3782.7526162472936 0.12911253164433531 0.0000000000000000 
109.29959109113388 204.77037274339702 174.79128099478672 109.29959109113391 204.77037274339699 174.79128099478669 -17.189881619186508 -8.5595391002034608e-08 1.0830372173074828e-06 -1.4813143730201918e-06 0.0000000000000000 -2.7123586960220439e-05 -2.5511743229067463e-07 -0.00029075978587056461 0.0011671114159294289 -1.4121696486787243e-10 4.4134477752920964e-11 -8.3055937051452662e-12 0.0000000000000000 106.16678147036436 202.95444406841523 167.49089761680582 1451.6544664497774 0.0000000000000000 0.0000000000000000 0.0000000000000000 0.0000000000000000 0.76714354833465714 0.19615208901236689 0.016716629932010788 0.12925239823457238 3790.2369391531001 0.12929278604699054 0.0000000000000000 
95.656998235597598 215.36078503478365 159.16519160983339 95.656998235597655 215.36078503478356 159.16519160983341 -22.180651323315473 -1.9843017405798222e-06 3.4380806348222860e-06 -4.6341776049293215e-06 0.0000000000000000 -2.4426900092633375e-05 -2.6368033889667686e-07 -0.00026703583925802304 0.0011752524079368563 -1.2120111177730293e-11 -1.8309132387656141e-10 3.7571399636626084e-11 0.0000000000000000 92.835659459041835 213.48390549527133 152.46046799605259 1374.0431229362807 0.0000000000000000 0.0000000000000000 0.0000000000000000 0.0000000000000000 0.76639930033332593 0.19577209735995596 0.016668132628858971 0.12915945458867528 3782.0474376353577 0.12910507988387024 0.0000000000000000 
108.92393288151843 180.46454702375112 174.49059960980773 108.92393288151837 180.46454702375107 174.49059960980773 -16.988489278710158 4.1037043865749971e-06 -1.4938083567331757e-06 1.0199912655370927e-07 0.0000000000000000 -2.7049331814188449e-05 -2.3546489846815177e-07 -0.00029030328334411770 0.0011792407985334640 -1.2904904974261755e-10 -1.1131878141233048e-12 -5.9030079138578359e-11 0.0000000000000000 105.79969982540383 178.78850535694073 167.20167807608388 2450.7686744678872 0.0000000000000000 0.0000000000000000 0.0000000000000000 0.0000000000000000 0.76632328213945389 0.19573193052154753 0.016662848620119623 0.12914640932504576 3794.7377381499241 0.12908463578994497 0.0000000000000000 
78.158361859610039 195.09191067402458 163.85508558206411 78.158361859610054 195.09191067402469 163.85508558206405 -16.089164010998164 7.0425219001839605e-07 3.7614936827919475e-06 -2.7494958255553623e-06 0.0000000000000000 -2.4023605800733058e-05 -6.6713532155468466e-06 -0.00026913612041621813 0.0010529231270285679 -4.4978755380406141e-11 -1.7277028292334112e-10 5.8384372946637707e-11 0.0000000000000000 75.717375094302042 193.21622810126507 157.03338180528999 1144.4826376458880 0.0000000000000000 0.0000000000000000 0.0000000000000000 0.0000000000000000 0.76755974989978160 0.19636941338597994 0.016744987164530763 0.12927562931932149 3786.5557583553700 0.12940219830991304 0.0000000000000000 
123.85202822677846 179.60613241417718 139.31533546893979 123.85202822677844 179.60613241417724 139.31533546893979 -21.552821354829529 -6.4365311709201748e-07 -2.9932500888453342e-06 -3.4978170768909917e-06 -21.512362261581014 -3.0000119762840786e-05 -2.3477082677914043e-07 -0.00023689925705228099 0.0012260737039919368 -4.3943388543551803e-11 9.4816261638703912e-11 4.2910035718570200e-11 0.0013301243432603212 120.38697531999998 177.93503117000000 133.36727978000002 3315.6872353797526 0.0000000000000000 0.0000000000000000 0.0000000000000000 0.0000000000000000 0.76695321552588769 0.19605558374766607 0.016704407956867125 0.12918159265069110 3781.6874287160736 0.12924540846188240 0.0000000000000000 
125.92797729922373 152.17614077353022 173.36610430170805 125.92797729922373 152.17614077353025 173.36610430170811 -21.527206366081042 2.5624201379856119e-07 3.0680928343011743e-07 1.1512969149430159e-06 0.0000000000000000 -3.0410465841734791e-05 -2.1259221649749799e-07 -0.00028859604452002863 0.0011910428621213613 4.2809094665389637e-12 1.9047342785630999e-11 2.6555660442180669e-11 0.0000000000000000 122.41552888508200 150.66290700972726 166.12004804243418 2788.4559803272532 0.0000000000000000 0.0000000000000000 0.0000000000000000 0.0000000000000000 0.76583854446675448 0.19548396775819163 0.016631140897844118 0.12912154543608662 3788.0556469353314 0.12896179510031230 0.0000000000000000 
106.35252143457846 160.57432071453459 157.57140337476196 106.35252143457843 160.57432071453462 157.57140337476190 -18.113738421688549 2.8224192987691883e-06 -3.1341114699716630e-06 -2.1171822619858720e-06 0.0000000000000000 -3.4762245630824725e-05 1.5170358335348961e-06 -0.00025922784847046311 0.0011766404285375434 -6.6451209070545343e-11 7.0448708352349980e-11 3.6515498700405884e-11 0.0000000000000000 103.16264437007636 159.03337825173907 151.00577047027593 2614.5647304445974 0.0000000000000000 0.0000000000000000 0.0000000000000000 0.0000000000000000 0.76550948936052299 0.19531697662915665 0.016609949602093450 0.12907516587179765 3797.5735135919758 0.12888010290483895 0.0000000000000000 
139.15964000836811 136.64200853101113 218.08156871950419 139.15964000836811 136.64200853101110 218.08156871950422 -15.394880717055013 1.7281669134758974e-06 4.3862101720849960e-06 -4.0926004333037864e-06 -12.847945165500320 -3.3025925479047737e-05 -2.0003204281859871e-07 -0.00035648425790513199 0.00090397946018217195 -1.1725985974476692e-10 -3.3493822395396041e-10 1.5201799754007572e-10 0.00082674266157170963 135.34510260000002 135.21817816000001 209.13097830999999 2383.2023779596761 0.0000000000000000 0.0000000000000000 0.0000000000000000 0.0000000000000000 0.76712836163436982 0.19614461034090305 0.016715714313716053 0.12927220928650601 3791.8027830124402 0.12928931506280961 0.0000000000000000 
119.73341268947533 102.38167485037596 198.61811933289522 119.73341268947532 102.38167485037594 198.61811933289525 -18.333269673231253 -1.7869977924193464e-06 -1.9182313111371430e-06 -4.2875167038476243e-06 -20.432681210553593 -2.9186006458514768e-05 -1.7233077298506319e-07 -0.00032693432876773620 0.0010103308373595485 9.7468231159666932e-11 1.4342594992006289e-10 1.7925872551412428e-10 0.0010258523530478341 116.36239092999996 101.15502254000000 190.40946719000002 2640.5657475930620 0.0000000000000000 0.0000000000000000 0.0000000000000000 0.0000000000000000 0.76753986315208877 0.19635575956265194 0.016742792379194630 0.12927220928650604 3778.5699099010399 0.12939406054423561 0.0000000000000000 
125.23630251913531 109.40127193779297 229.67961470261025 125.23630251913531 109.40127193779298 229.67961470261025 -12.709170894198646 -2.2457209053206726e-06 -5.1026747124254638e-06 -4.7093943395121833e-07 -9.6468067549782308 -3.0273744749508354e-05 -1.7800648333063229e-07 -0.00037409272135335809 0.00073629765123099135 1.8072700957574387e-10 2.8045942293186846e-10 -6.6050393260780897e-11 0.00058934848416166384 121.73964556999999 108.13421982999998 220.28691180000004 1907.3938422647439 0.0000000000000000 0.0000000000000000 0.0000000000000000 0.0000000000000000 0.76700960727263723 0.19608330081151598 0.016707805491560618 0.12927220928650615 3798.5100174935587 0.12925868869473375 0.0000000000000000 
107.89592354430346 123.28610549696624 215.58042087834056 107.89592354430350 123.28610549696624 215.58042087834056 -11.823700177250725 2.8810615891306630e-07 -2.8707029125028425e-07 -5.0295464049994083e-06 0.0000000000000000 -2.6846128568847053e-05 -1.8923310163287965e-07 -0.00035268694839118986 0.00077659739246543739 -5.0889625788348168e-11 -2.9597442749900278e-11 1.7705026234316191e-10 0.0000000000000000 104.79516072874441 121.93914218401807 206.72517314201556 2433.5838456336692 0.0000000000000000 0.0000000000000000 0.0000000000000000 0.0000000000000000 0.76703524156287139 0.19609698540849149 0.016709623462580165 0.12927220928650607 3799.7743105656978 0.12926572573683581 0.0000000000000000 
39.297747029059913 164.71430943568481 161.46995109794048 39.297747029059913 164.71430943568478 161.46995109794045 -8.6674987064956337 1.1905534112619794e-06 2.6730267422576000e-06 2.2775773569760971e-06 -9.7285415795472865 -1.3286550636815166e-05 -2.2272997746153328e-07 -0.00027053498672668930 0.00071107730800939431 -1.1541463068149228e-10 -1.4355216190394624e-10 5.8033205959776522e-11 0.00073227128020381821 37.763133124999982 163.12891490999996 154.67737105000003 1609.7391759139125 0.0000000000000000 0.0000000000000000 0.0000000000000000 0.0000000000000000 0.76660104701997178 0.19587423827808112 0.016681058457947547 0.12930832459134256 3804.8317563120863 0.12915537077503195 0.0000000000000000 
39.336256200949627 177.96387503124686 173.47849702109187 39.336256200949620 177.96387503124691 173.47849702109187 -10.135698731455239 7.2933336387341469e-07 1.4278652528468035e-06 -1.7019764725574510e-06 -13.419895365516842 -1.3294162623522786e-05 -2.3344296651295335e-07 -0.00028876668214583573 0.00060875809800497831 -3.6989427633687110e-11 -7.8783212320181470e-11 1.5526505239574017e-10 0.00076176364981712767 37.800763103000001 176.30222544999998 166.22815640000002 1278.4532315353756 0.0000000000000000 0.0000000000000000 0.0000000000000000 0.0000000000000000 0.76675334664771821 0.19595390049749797 0.016691476977673873 0.12927220928650612 3799.4002681433199 0.12919556409984395 0.0000000000000000 
30.655746376973116 165.22990636409830 182.78126542635343 30.655746376973124 165.22990636409830 182.78126542635343 -7.7833903618738303 1.0693972453210237e-06 1.2329275724470957e-06 -2.8443044888643334e-06 -8.3593763698989445 -1.1578314541795437e-05 -2.2314686476399004e-07 -0.00030289039382513922 0.00049233419866777448 -3.5887060436512057e-11 -2.4994442755440929e-11 1.4878180738307581e-10 0.00047851127212525472 29.318435967000010 163.64154443000001 175.17630729999999 1176.2421003033126 0.0000000000000000 0.0000000000000000 0.0000000000000000 0.0000000000000000 0.76714308709074508 0.19615295283003178 0.016716886549683237 0.12927220928650601 3802.3804029896005 0.12929379172221611 0.0000000000000000 
47.041053502804949 140.83082127327896 183.20042616455595 47.041053502804964 140.83082127327904 183.20042616455603 -6.6555893246818298 -3.9576686943382257e-06 1.1995573152703178e-06 -6.6031803758559766e-07 0.0000000000000000 -1.4817144783796365e-05 -2.0341893569586489e-07 -0.00030352677486988888 0.00052504003336379583 3.4597472843616369e-10 6.3362223051661473e-11 2.0836047127740291e-10 0.0000000000000000 45.329653981089926 139.38288308181924 175.57948981227980 1838.0408446142237 0.0000000000000000 0.0000000000000000 0.0000000000000000 0.0000000000000000 0.76695629928843900 0.19605445749136172 0.016703910046988301 0.12932238081633382 3810.5638200773142 0.12924370741944713 0.0000000000000000 
60.678241396510266 138.51916398983599 232.11070024113658 60.678241396510280 138.51916398983599 232.11070024113664 -5.1829634611315498 2.1164941769900726e-07 1.8408513990159312e-06 -1.7411086034856196e-06 -5.7555768812967676 -1.7512763263560774e-05 -2.0154983515485725e-07 -0.00037778366038865308 0.00033467067096902450 -4.0379561502560534e-11 -5.4355549363464592e-11 1.4303403391086921e-10 0.00023784962801058355 58.655494429999983 137.08453005000001 222.62532541000004 1283.0721019573000 0.0000000000000000 0.0000000000000000 0.0000000000000000 0.0000000000000000 0.76710837829014189 0.19613324016615499 0.016714112716771312 0.12927220928650615 3807.9764805977979 0.12928313858640014 0.0000000000000000 
38.864635461231636 151.77008235095235 227.98547575933574 38.864635461231629 151.77008235095238 227.98547575933577 -5.4017859541073383 1.0798499277913068e-06 5.7535084036711954e-07 -7.1564023718629074e-07 -6.1796553725572361 -1.3200938890345352e-05 -2.1226389590456302e-07 -0.00037152063431400434 0.00030677263165627505 -4.5733129560904133e-11 -5.1439068969961483e-11 8.2673298252001660e-11 0.00033169350632780058 37.339909825999996 150.25918557000000 218.65735269999999 1388.6032526015726 0.0000000000000000 0.0000000000000000 0.0000000000000000 0.0000000000000000 0.76707092284750511 0.19611530097730781 0.016711975435734040 0.12927220928650615 3807.4036456608164 0.12927478984984495 0.0000000000000000 
61.143556237735758 160.33125241361475 212.26374332342866 61.143556237735758 160.33125241361475 212.26374332342860 -6.0848226684635245 1.7186198350655538e-06 -4.9579050236614930e-07 -1.8644795886976740e-07 -6.5202760221846754 -1.7604740530696561e-05 -2.1918606063461267e-07 -0.00034765147986193142 0.00042273825977632163 -1.8400747502671888e-10 6.1168417466034544e-11 1.3524966537274157e-11 0.00034995889485502253 59.110185776999977 158.77108363999997 203.53492589999999 1913.3477276736232 0.0000000000000000 0.0000000000000000 0.0000000000000000 0.0000000000000000 0.76663778590966547 0.19589419128502400 0.016683766274464308 0.12927220928650598 3808.5906533189332 0.12916575188477580 0.0000000000000000 
47.045408905296782 133.11088614520057 206.38200456690598 47.045408905296803 133.11088614520065 206.38200456690603 -5.7440380343052988 -1.3605882544717771e-06 -2.9902364523974947e-07 1.0138404058976835e-06 0.0000000000000000 -1.4818005704908437e-05 -1.9717696986276678e-07 -0.00033872166687065608 0.00038095705272643663 5.0606452201813950e-11 4.6939233419908413e-11 -7.0297028251576213e-11 0.0000000000000000 45.333909946406948 131.70737839773392 197.87739647919071 1878.7089811415260 0.0000000000000000 0.0000000000000000 0.0000000000000000 0.0000000000000000 0.76717376774670265 0.19616797201162758 0.016718721617500765 0.12928296923714863 3807.9436770207353 0.12930085311404149 0.0000000000000000 
75.584426590642082 184.14060255221872 200.45360314125085 75.584426590642110 184.14060255221872 200.45360314125085 -7.8329031575618888 7.2298307675474227e-07 -1.7851035809654026e-06 4.5547083888985413e-07 -5.7092484179810334 -2.0459220289925639e-05 -2.3843717178451129e-07 -0.00032972100934469672 0.00064723135269067404 -3.2214215622908557e-10 1.5717878648424772e-10 -8.1158257951774462e-11 0.00050747623623226441 73.221359999000001 182.44340413000006 192.17498315000009 1916.8989385598338 0.0000000000000000 0.0000000000000000 0.0000000000000000 0.0000000000000000 0.76836274870593113 0.19677435019483347 0.016796020438386964 0.12938775940886840 3794.8063218734655 0.12959959445539757 0.0000000000000000 
84.818015541712086 143.04976908343667 218.46576836365304 84.818015541712114 143.04976908343676 218.46576836365301 -8.4566907706974099 5.9631883954650148e-07 1.0734606065210847e-06 -7.3810973786735934e-07 -5.4619359818439230 -2.2284393719207429e-05 -2.0521305765797138e-07 -0.00035706756006725904 0.00072828689971362259 -4.0972835695202346e-11 -1.9811154842385850e-10 1.4975024475182106e-10 0.00080266097093543672 82.244139041999972 141.58906020999996 209.50053243000002 2596.9063225776295 0.0000000000000000 0.0000000000000000 0.0000000000000000 0.0000000000000000 0.76729097341924102 0.19622820724585180 0.016726456887857937 0.12929669223833934 3804.8324861342394 0.12933064388054541 0.0000000000000000 
99.709834294077567 152.36224548298779 185.07250458001346 99.709834294077595 152.36224548298782 185.07250458001354 -13.055567319894436 6.4743292154286128e-06 6.5868141796597231e-08 -1.6764075234115352e-06 0.0000000000000000 -3.6819109631005697e-05 1.5939651399170995e-06 -0.00030091214842404142 0.0010641425572748826 -3.0530967295867175e-10 9.1252786624662540e-11 1.6775001629655642e-11 0.0000000000000000 96.634805924592328 150.82018211309926 177.41298922508184 2674.5721001240636 0.0000000000000000 0.0000000000000000 0.0000000000000000 0.0000000000000000 0.76636493801026229 0.19574975842961942 0.016664680507876509 0.12914783736266139 3802.1320258532837 0.12909148121611136 0.0000000000000000 
113.44052769340168 162.38719616687300 203.04347297205015 113.44052769340168 162.38719616687294 203.04347297205007 -17.353534244764479 5.5634175916400206e-06 7.3975493429770349e-07 -2.1502904072223701e-07 0.0000000000000000 -2.7942112389434115e-05 -2.2084838235958415e-07 -0.00033365301895060823 0.0010973614732012809 -1.8620521653098706e-10 -1.0218726220841296e-10 -1.8453445875773001e-11 0.0000000000000000 110.21317731831955 160.81519484644704 194.66612826377516 2907.4611518241991 0.0000000000000000 0.0000000000000000 0.0000000000000000 0.0000000000000000 0.76646080826869711 0.19580231046759464 0.016671848036781331 0.12913171396608075 3790.8138065864573 0.12911940307791306 0.0000000000000000 
71.096283702582483 139.21086191715597 199.04021602247343 71.096283702582483 139.21086191715588 199.04021602247337 -5.3224570896916017 7.7279034142163473e-07 1.7313379204545314e-06 3.8739254212264891e-06 0.0000000000000000 -1.9572063724382357e-05 -2.0210912010654170e-07 -0.00032757516723624924 0.00060912285426700504 -4.5812802035703697e-10 1.5063755390729366e-10 -2.3329089063847560e-10 0.0000000000000000 68.835684850694804 137.77224705707783 190.81547373645992 2302.4579037184249 0.0000000000000000 0.0000000000000000 0.0000000000000000 0.0000000000000000 0.76753905640989006 0.19635341864568157 0.016742237274956009 0.12938205204889688 3810.3747709884638 0.12939207580633069 0.0000000000000000 
86.602132070673960 176.60538382750218 182.03978585328036 86.602132070673946 176.60538382750210 182.03978585328051 -10.702125750934460 2.5202064405592417e-06 1.6079234335521876e-06 -1.0654154956896692e-06 0.0000000000000000 -3.3406607934219070e-05 -9.6221886480796676e-08 -0.00029531039740979492 0.00091822445235455359 -3.6185534624847923e-10 -2.2935776013819737e-10 6.7130623860127523e-11 0.0000000000000000 83.849638243891135 174.91172786385235 174.51222656391082 1667.9065348682720 0.0000000000000000 0.0000000000000000 0.0000000000000000 0.0000000000000000 0.76803945643805449 0.19660757338229626 0.016774514582270462 0.12929489944757142 3793.9648157053307 0.12951565204714202 0.0000000000000000 
104.35289435545205 228.65702490895364 189.26790273298994 104.35289435545204 228.65702490895364 189.26790273298997 -18.055831447785941 -3.0749443707111094e-06 2.3676026799893591e-06 7.3699391865074488e-07 -19.299223293949780 -2.6145789531417666e-05 -2.7443105032887161e-07 -0.00031273857998503901 0.0011219983617482545 2.3049075072045793e-10 -1.9872898780304970e-10 1.0220167293500693e-10 0.0010699443050180999 101.33302161000000 226.70362169000003 181.41567680000000 527.87335979314730 0.0000000000000000 0.0000000000000000 0.0000000000000000 0.0000000000000000 0.76704408201692931 0.19610146863189604 0.016710195172603030 0.12927220928650612 3786.1439618224072 0.12926793102308001 0.0000000000000000 
112.45260501361948 214.71493997569675 200.33148363866712 112.45260501361948 214.71493997569675 200.33148363866712 -16.038220861480511 8.7584582354673535e-07 1.1365431270177704e-07 -9.1240062753987902e-08 -14.988636618152897 -2.7746832935049422e-05 -2.6315813639321561e-07 -0.00032953560424719974 0.0011110179737728713 -2.8414677540036969e-10 1.9728563129576317e-10 6.6865862275138151e-12 0.0011586012076805991 109.24780967000000 212.84177746000000 192.05751878999999 1255.4436111582911 0.0000000000000000 0.0000000000000000 0.0000000000000000 0.0000000000000000 0.76701695956276705 0.19608816513213070 0.016708567504975003 0.12927220928650618 3791.0453673083971 0.12926162936685864 0.0000000000000000 
94.473612119696526 214.89023483182413 185.68097324480743 94.473612119696540 214.89023483182422 185.68097324480735 -17.244296549710732 2.0750450436733318e-07 3.9124286413620685e-06 -4.0691227113611643e-06 0.0000000000000000 -2.4192984022119998e-05 -2.6329988367379542e-07 -0.00030729280773855727 0.0010592421006479493 2.5354424813464746e-11 -4.4037139131996673e-10 2.1161794694356384e-10 0.0000000000000000 91.679290954562077 213.01606344388193 177.96547951144200 663.90724330950775 0.0000000000000000 0.0000000000000000 0.0000000000000000 0.0000000000000000 0.76703052864753229 0.19609241302699332 0.016708762429910137 0.12926267694972784 3788.7999138816804 0.12926232826233919 0.0000000000000000 
66.175608416191423 213.56310455663348 173.89987470395161 66.175608416191395 213.56310455663339 173.89987470395167 -17.232852322024801 3.9003718840032230e-06 5.7821121356708625e-06 -3.5990201950005420e-06 0.0000000000000000 -2.1011465632259024e-05 -3.6497349910281689e-06 -0.00028622379206932029 0.00097039836941862224 -2.4624137760757753e-10 -4.1160195983701404e-10 9.2551848758730251e-12 0.0000000000000000 64.005185165032174 211.65254642520509 166.67194214610197 754.86350931875324 0.0000000000000000 0.0000000000000000 0.0000000000000000 0.0000000000000000 0.76729168879358423 0.19622461303684913 0.016725494552371864 0.12927234426726933 3786.4697019784990 0.12932688442379761 0.0000000000000000 
62.972418714977863 186.16681656616447 169.91524308113634 62.972418714977884 186.16681656616453 169.91524308113637 -12.018439955430305 -1.0648127330486102e-06 -3.6586141815465011e-08 -1.0609441260309223e-06 0.0000000000000000 -1.7966245814848847e-05 -2.4007547660964685e-07 -0.00028335685478109163 0.00083310505455024984 -4.9499690609213984e-11 5.7074600004301607e-11 1.1097745620352658e-10 0.0000000000000000 60.897293923099205 184.45795670032331 162.80073215801758 1456.3555990979894 0.0000000000000000 0.0000000000000000 0.0000000000000000 0.0000000000000000 0.76788793963352464 0.19653336252952275 0.016765450048840166 0.12940042403209526 3790.1512112285423 0.12948147586339773 0.0000000000000000 
91.000600466034584 197.81916911991433 145.08998044330437 91.000600466034527 197.81916911991442 145.08998044330434 -20.379689945142818 3.7829305367490621e-07 4.0415145535802056e-06 -1.9033694769967194e-06 0.0000000000000000 -2.3506485135493801e-05 -2.4949701304954885e-07 -0.00024566647741441905 0.0011698302660501773 -4.1380137229252789e-11 -1.1198360380433452e-10 5.7277971757661485e-11 0.0000000000000000 88.285570817050015 196.04324661832075 138.92179778727578 2284.4992455537940 0.0000000000000000 0.0000000000000000 0.0000000000000000 0.0000000000000000 0.76685327146135029 0.19600456625830551 0.016697889846947204 0.12916735386156730 3783.5499537647452 0.12922032464134192 0.0000000000000000 
84.448707054370189 176.20713665559990 160.50838171340089 84.448707054370217 176.20713665559984 160.50838171340089 -13.074000729886414 1.2845022515737293e-06 1.6294755315932630e-06 -1.2751590585703882e-06 0.0000000000000000 -2.8646652636020547e-05 -3.0789743347471745e-06 -0.00026450672001042196 0.0010621073392552581 -5.2597969817012206e-11 -7.7103299953793344e-11 6.5565464482353021e-11 0.0000000000000000 81.814121362732124 174.46733636348887 153.79871785113039 1849.3455604645501 0.0000000000000000 0.0000000000000000 0.0000000000000000 0.0000000000000000 0.76673789548628801 0.19594069284073407 0.016689089888516070 0.12924886309264833 3801.1300376305294 0.12918598873368217 0.0000000000000000 
79.067165689823682 239.48620304952502 178.94034560516477 79.067165689823682 239.48620304952507 178.94034560516477 -24.141400977922668 9.1052363214312376e-07 -2.7145207800978512e-07 -3.4209153316492825e-06 -23.142193390156649 -2.1147641974916805e-05 -2.8318699807350356e-07 -0.00029705900668752783 0.0012632003127040572 -5.2975862330598497e-11 2.4477548258647990e-11 -2.6845349397634861e-11 0.0012662516873149627 76.624585496999998 237.47047479999995 171.48180167999999 450.61312636181810 0.0000000000000000 0.0000000000000000 0.0000000000000000 0.0000000000000000 0.76730149995658048 0.19623661017832017 0.016727920234019093 0.12927220928650621 3773.1295358126595 0.12933653367311335 0.0000000000000000 
68.826490196635589 239.32348467856391 162.71290923412502 68.826490196635604 239.32348467856397 162.71290923412499 -28.251688703665767 -4.4851941238418416e-07 -2.0673045226699286e-07 -3.6028230559107827e-06 -29.829682841844143 -1.9123401040930133e-05 -2.8305543975617349e-07 -0.00027242207899047521 0.0012751506383998868 3.0380869383996007e-11 1.1055111070314257e-11 -5.7543711985635073e-12 0.0013021397012563511 66.617712469000011 237.30869291999991 155.87294816000005 715.16986369778181 0.0000000000000000 0.0000000000000000 0.0000000000000000 0.0000000000000000 0.76675111725346112 0.19594841485774370 0.016690212828622659 0.12919223644556477 3767.8053509004699 0.12919046823784958 0.0000000000000000 
89.922260289824635 238.93369494670108 153.49388650790229 89.922260289824635 238.93369494670108 153.49388650790229 -27.509114421287979 -1.6628744685957336e-06 -1.3275544988692877e-07 -1.9207627155872173e-06 -31.589440909580578 -2.3293333146100823e-05 -2.8274028318633060e-07 -0.00025842551226262778 0.0012466021172193714 4.3827348736018310e-11 -5.4498306864335088e-11 -4.4638617426080026e-11 0.0012933601759133591 87.231849972999981 236.92114653999997 147.00535059000001 1226.5804134212974 0.0000000000000000 0.0000000000000000 0.0000000000000000 0.0000000000000000 0.76707364443717796 0.19611628878778695 0.016712050002812680 0.12920902319100525 3765.8078480047266 0.12927509084343372 0.0000000000000000 
89.708947206619868 226.72338802856314 169.20589101832053 89.708947206619825 226.72338802856305 169.20589101832050 -23.067968065188492 -1.9149989218410648e-06 2.4814584359840159e-06 -2.6300866196182306e-06 0.0000000000000000 -2.3251168237647946e-05 -2.7286760828637568e-07 -0.00028227989751283827 0.0012240438693993892 7.8813756203457512e-11 -1.4666969478873666e-10 -5.3543875308073368e-11 0.0000000000000000 87.023406990868523 224.78111344523825 162.11842028882040 681.06850806740897 0.0000000000000000 0.0000000000000000 0.0000000000000000 0.0000000000000000 0.76675864480684064 0.19595074761116316 0.016690313550964671 0.12920423570246969 3780.0229783126128 0.12919096704752850 0.0000000000000000 
89.501986497112782 198.25047221650462 193.80435070713585 89.501986497112753 198.25047221650459 193.80435070713577 -12.250135156365968 2.2167119182075533e-06 -3.9842996936149232e-07 -1.0759842045403990e-06 0.0000000000000000 -2.3210258996764207e-05 -2.4984575897057937e-07 -0.00031962593654299987 0.00091377024705007652 -4.0475494686847990e-10 3.8099797324052392e-10 8.7245574197029588e-11 0.0000000000000000 86.821171352877627 196.47206744171046 185.77919734079927 1095.9217422697654 0.0000000000000000 0.0000000000000000 0.0000000000000000 0.0000000000000000 0.76693428618371273 0.19604266427939263 0.016702342152659248 0.12928199746493252 3800.1247548610718 0.12923757591809587 0.0000000000000000 
31.373694515885166 216.33023867365193 136.75444028283067 31.373694515885170 216.33023867365188 136.75444028283070 -17.578375537332754 2.1768565043016066e-07 1.6583513944892525e-06 2.0186663672922315e-07 -19.094676482591812 -1.1720229009527524e-05 -2.6446419920667097e-07 -0.00023301123753705083 0.00099179156040304483 -2.0493542980831774e-11 -1.1012417499697577e-10 -2.5470360250701766e-11 0.0010338459949225081 30.019992800000004 214.44777965000000 130.90400481000003 1639.8558849024062 0.0000000000000000 0.0000000000000000 0.0000000000000000 0.0000000000000000 0.76693957401808432 0.19604842658558047 0.016703465491545774 0.12927220928650621 3788.4867392700025 0.12924187107523913 0.0000000000000000 