# For a description of the Tecplot format see the Tecplot User's guide.
#
Variables=x,y,z,s_u,s_v,s_w,s_p,mono_f_vel_u,mono_f_vel_v,mono_f_vel_w,const,u_nu,v_nu,w_nu,p_nu,x_nu,y_nu,z_nu,const,u_ref,v_ref,w_ref,vol_ref,x_ref,y_ref,z_ref,const,I1,I2,I3,J,p1,p2,p3
Zone f=fepoint, n=246, e=987, et=brick, c=black
38.2059 186.432 154.183 38.205859320937400 186.43222518038192 154.18320596653672 -4.8423963068926295 -2.5350386210190528e-07 1.6863336941127067e-07 -1.2058385292669680e-07 -4.5048153865998861 -1.3731116333154381e-05 -9.9298152184124057e-07 -0.00016452754811496773 0.00075291359806662001 4.3563206227507638e-11 -7.3282851488002106e-11 -1.4472029785170912e-11 0.00075034332029858463 37.813509013000001 185.98771463999995 152.49007815000002 1568.1286420541724 0.0000000000000000 0.0000000000000000 0.0000000000000000 0.0000000000000000 0.75439658877173166 0.18970364259129796 0.015901125386644514 0.12609185468182094 3918.7783460113583 0.12609966059219604 0.0000000000000000 
38.147591448815135 202.06246358119674 167.89543081349998 38.147591448815128 202.06246358119677 167.89543081349996 -4.5532583719422561 -4.3017939976818259e-07 9.6561341959363763e-08 -1.5162933900096311e-06 -3.9544516779300460 -1.3719016788454885e-05 -1.0452066140920202e-06 -0.00017772811535293753 0.00065013035051305278 7.6412604039338424e-11 -9.1404400208846583e-11 3.6900616022111288e-10 0.00055479175814137824 37.755586870999998 201.59457435000007 166.06645798000000 1115.6658590402926 0.0000000000000000 0.0000000000000000 0.0000000000000000 0.0000000000000000 0.75439966958426485 0.18970518236264644 0.015901317724882624 0.12609450317268103 3919.5756017805170 0.12610042640926758 0.0000000000000000 
65.264874101101114 203.81632999948718 148.98701058427935 65.264874101101142 203.81632999948724 148.98701058427926 -6.0098932795846922 8.3563579956888167e-07 1.4786317404105754e-06 -7.5365370023406438e-07 0.0000000000000000 -1.9688540258221357e-05 -3.0087888399559577e-06 -0.00015909426616893260 0.00085729651656142949 -8.9952003669676657e-11 -1.8975408822890724e-10 6.8782772161362935e-11 0.0000000000000000 64.706898088665852 203.32599865957309 147.35284761981995 1170.9507322714735 0.0000000000000000 0.0000000000000000 0.0000000000000000 0.0000000000000000 0.75427727000311373 0.18964367579502561 0.015893590878230005 0.12607330911253645 3917.4505671848005 0.12606976829929417 0.0000000000000000 
58.489217964996882 219.28751970437517 155.65366948122718 58.489217964996890 219.28751970437503 155.65366948122715 -7.0757402715564250 6.7681068247105866e-07 1.7206874383198700e-06 -1.1553370533462561e-06 0.0000000000000000 -1.7943033093048566e-05 -1.1027604663871315e-06 -0.00016594314279355649 0.00088430543589092020 7.4259767554012127e-12 -2.6554350806486190e-10 5.1177611989859544e-11 0.0000000000000000 57.976517148132935 218.79386635806736 153.94597399654558 871.12382118538517 0.0000000000000000 0.0000000000000000 0.0000000000000000 0.0000000000000000 0.75419531742663992 0.18960226633229496 0.015888360031329388 0.12606687960715926 3916.1185279512679 0.12604903787562927 0.0000000000000000 
106.96712403183381 203.42437035090140 169.33412336817113 106.96712403183386 203.42437035090131 169.33412336817116 -5.5693938350045942 -7.6984535495001003e-09 3.2319516769870888e-07 -4.4142272475340264e-07 0.0000000000000000 -2.8009655129890284e-05 -1.0497571316103738e-06 -0.00017911312454982342 0.0010023226282613812 -1.3023460895383031e-10 6.4572772322167540e-11 -1.8861411598547459e-11 0.0000000000000000 106.16678147036436 202.95444406841523 167.49089761680582 1451.6544664497774 0.0000000000000000 0.0000000000000000 0.0000000000000000 0.0000000000000000 0.75437139451620583 0.18969093281955718 0.015899522386349726 0.12608500261034555 3918.0940576163525 0.12609330682219697 0.0000000000000000 
93.556430197305517 213.96960465120657 154.15329953391165 93.556430197305474 213.96960465120662 154.15329953391165 -6.9318464601693899 -5.0472163750372450e-07 8.9859860212339880e-07 -1.2190463710203962e-06 0.0000000000000000 -2.5224873425766514e-05 -1.0849917907451709e-06 -0.00016449875762009070 0.00097420937142646778 -5.8439224502357603e-11 -8.8678759283506719e-11 5.8305895528104007e-11 0.0000000000000000 92.835659459041835 213.48390549527133 152.46046799605259 1374.0431229362807 0.0000000000000000 0.0000000000000000 0.0000000000000000 0.0000000000000000 0.75417726804440843 0.18959333573268786 0.015887255747648949 0.12606100788922914 3915.8701817724800 0.12604465482015006 0.0000000000000000 
106.59785132180527 179.22223165942557 169.04200990182923 106.59785132180525 179.22223165942552 169.04200990182923 -5.4553556928030718 1.0776780809319391e-06 -3.7450013780923791e-07 -2.9138600719580444e-08 0.0000000000000000 -2.7932974247246722e-05 -9.6889086553808568e-07 -0.00017883191100981358 0.0010284187335273679 -4.5422031853075889e-11 -1.2355435803356289e-11 -5.3958902400182316e-11 0.0000000000000000 105.79969982540383 178.78850535694073 167.20167807608388 2450.7686744678872 0.0000000000000000 0.0000000000000000 0.0000000000000000 0.0000000000000000 0.75415755218855518 0.18958334556528705 0.015885990532880419 0.12606145640578426 3919.3702684400164 0.12603964268415699 0.0000000000000000 
76.342355321290583 193.69987459948408 158.75405324514114 76.342355321290583 193.69987459948413 158.75405324514119 -5.2097730455242939 2.1376633424439818e-07 1.0166881151024437e-06 -7.1371221922329833e-07 0.0000000000000000 -2.1993434602360912e-05 -4.5105490288749569e-06 -0.00016609697130808281 0.00088376962135442718 -6.2250309043180801e-11 -8.7141471105281892e-11 9.0237534713384627e-11 0.0000000000000000 75.717375094302042 193.21622810126507 157.03338180528999 1144.4826376458880 0.0000000000000000 0.0000000000000000 0.0000000000000000 0.0000000000000000 0.75448469705473886 0.18974821311603310 0.015906761718565515 0.12609549179741569 3917.1605987235048 0.12612199043670455 0.0000000000000000 
121.27219646483194 178.36747898920854 134.86906521355363 121.27219646483194 178.36747898920854 134.86906521355360 -6.6513822167668009 -1.7186499326272022e-07 -6.8598891957759940e-07 -8.4855159134502549e-07 -6.6633519263243848 -3.0980157963378385e-05 -9.6603488475288657e-07 -0.00014593409472357655 0.0010386569830549515 -2.1228196292045796e-11 2.8398062186276062e-11 1.2761955251612801e-11 0.0011164752542805203 120.38697531999998 177.93503117000000 133.36727978000002 3315.6872353797526 0.0000000000000000 0.0000000000000000 0.0000000000000000 0.0000000000000000 0.75430476866095886 0.18965747563819046 0.015895322292256046 0.12606699753009562 3916.0790136697033 0.12607664344090536 0.0000000000000000 
123.31285821596958 151.05450185976369 167.94955709715308 123.31285821596957 151.05450185976366 167.94955709715308 -6.5577572832841824 2.3940230135394334e-08 1.4829492606793931e-07 3.1251759687793568e-07 0.0000000000000000 -3.1403909159399834e-05 -8.7477440888217274e-07 -0.00017778022195397150 0.00099694172950798711 8.6138988350021686e-12 8.3905051601102203e-12 4.1422287057823330e-11 0.0000000000000000 122.41552888508200 150.66290700972726 166.12004804243418 2788.4559803272532 0.0000000000000000 0.0000000000000000 0.0000000000000000 0.0000000000000000 0.75410809070453444 0.18955847798321648 0.015882864910427098 0.12605418119569969 3917.1304314695290 0.12602723298657856 0.0000000000000000 
103.97713148538786 159.43304538447924 152.66292182013001 103.97713148538786 159.43304538447921 152.66292182013007 -5.6506935483923018 7.3818185118657214e-07 -7.1217190623870562e-07 -5.0324987186936843e-07 0.0000000000000000 -3.3092834878206486e-05 -4.8838568538759435e-07 -0.00015871429813743516 0.0010306108650302011 -1.3524172172568313e-11 7.3510921083476462e-12 2.5014879932298345e-11 0.0000000000000000 103.16264437007636 159.03337825173907 151.00577047027593 2614.5647304445974 0.0000000000000000 0.0000000000000000 0.0000000000000000 0.0000000000000000 0.75399979251685023 0.18950403862079479 0.015876023511785430 0.12604276651581559 3919.8598315617119 0.12600012059862326 0.0000000000000000 
136.31960696183364 135.58663718725052 211.39085397385648 136.31960696183364 135.58663718725052 211.39085397385651 -4.8404889820559278 4.5068797488169960e-07 1.1653351591898051e-06 -1.0874206727872553e-06 -4.1578963698898743 -3.4104810129499066e-05 -8.2309184495921152e-07 -0.00021960055134456752 0.00072341421007391174 -8.9427876024266620e-11 -2.4790773544871210e-10 1.2714720802130806e-10 0.00066957690034617334 135.34510260000002 135.21817816000001 209.13097830999999 2383.2023779596761 0.0000000000000000 0.0000000000000000 0.0000000000000000 0.0000000000000000 0.75437138348080512 0.18969094460367625 0.015899526098086838 0.12609035591462062 3918.9511522688617 0.12609332501689605 0.0000000000000000 
117.22358982694571 101.47245580049068 192.48201574401432 117.22358982694571 101.47245580049069 192.48201574401432 -5.5279038387598378 -4.3748440634016586e-07 -4.6615134976833988e-07 -1.0920529147873192e-06 -6.0697879542050588 -3.0139449361643589e-05 -7.0910660129874792e-07 -0.00020139727703866184 0.00078927653065498978 6.8779435832738023e-11 9.1026044148054847e-11 1.6185947386196187e-10 0.00077286018430388411 116.36239092999996 101.15502254000000 190.40946719000002 2640.5657475930620 0.0000000000000000 0.0000000000000000 0.0000000000000000 0.0000000000000000 0.75442364414190066 0.18971723434636076 0.015902832289879317 0.12609035591462056 3916.0544935199232 0.12610643461659873 0.0000000000000000 
122.63294063673416 108.46210775585001 222.65841353746126 122.63294063673416 108.46210775584998 222.65841353746129 -4.0587781666745943 -5.5858384252781448e-07 -1.3064080947942253e-06 -1.3305327203317595e-07 -3.2826830822179582 -3.1262721682356473e-05 -7.3246102924573893e-07 -0.00023044767346330671 0.00056797495300352403 1.2318186330919601e-10 1.7981825209944149e-10 -5.6483099883412655e-11 0.00045665731190197708 121.73964556999999 108.13421982999998 220.28691180000004 1907.3938422647439 0.0000000000000000 0.0000000000000000 0.0000000000000000 0.0000000000000000 0.75434953134644278 0.18967991902574013 0.015898135405824791 0.12609035591462056 3920.7216496683418 0.12608780813276407 0.0000000000000000 
105.58731625516421 122.28770954297848 208.96097636182228 105.58731625516425 122.28770954297850 208.96097636182222 -3.8524721318121071 6.3709295544698569e-08 -6.8059100995514984e-08 -1.3382114246084171e-06 0.0000000000000000 -2.7723132787926819e-05 -7.7865633046902971e-07 -0.00021726134214222761 0.00062255309950053224 -3.8550905921164193e-11 -3.7349869549031672e-11 1.5781576578271938e-10 0.0000000000000000 104.79516072874441 121.93914218401807 206.72517314201556 2433.5838456336692 0.0000000000000000 0.0000000000000000 0.0000000000000000 0.0000000000000000 0.75436352114077299 0.18968700861419888 0.015899033480390248 0.12609035591462064 3920.9212277801994 0.12609136895318787 0.0000000000000000 
38.155182745474605 163.53918353232703 156.39238488068966 38.155182745474590 163.53918353232706 156.39238488068972 -2.9112342373949400 3.3048778930347937e-07 7.0918398877169642e-07 5.5541313453893107e-07 -3.2671920535822050 -1.3720593149690871e-05 -9.1648931760390816e-07 -0.00016665429377898946 0.00062887347795156272 -8.2343190559074112e-11 -7.3578807469989066e-11 7.2254770720722516e-11 0.00067294483601292368 37.763133124999982 163.12891490999996 154.67737105000003 1609.7391759139125 0.0000000000000000 0.0000000000000000 0.0000000000000000 0.0000000000000000 0.75426628615751679 0.18963795597653588 0.015892847099772681 0.12611331230506462 3922.3269437720528 0.12606685272322621 0.0000000000000000 
38.193037332172516 176.73222736652230 168.05874718503665 38.193037332172523 176.73222736652227 168.05874718503668 -3.2597761368615448 2.1183465423973370e-07 4.2268804085325861e-07 -5.5661745521452083e-07 -4.1603425741403708 -1.3728453796657549e-05 -9.6057104398417081e-07 -0.00017788533772694626 0.00048544872845780642 -2.7479258537834346e-11 -3.6168138210194840e-11 1.6532449317127171e-10 0.00059143145700738388 37.800763103000001 176.30222544999998 166.22815640000002 1278.4532315353756 0.0000000000000000 0.0000000000000000 0.0000000000000000 0.0000000000000000 0.75419896201231418 0.18960426071950526 0.015888631269619560 0.12609035591462031 3921.9204746777227 0.12605013689305317 0.0000000000000000 
29.660080231592971 164.05258095870107 177.09643312501200 29.660080231592982 164.05258095870110 177.09643312501200 -2.5321781428637622 2.8873833108074073e-07 3.0723126920107363e-07 -8.5380571482883980e-07 -2.6286012685958409 -1.1956552719572128e-05 -9.1820470576875479e-07 -0.00018658579167379893 0.00040124933465405209 -1.8898411427387935e-11 7.4519371498059464e-12 1.4129088893211903e-10 0.00036766470172118525 29.318435967000010 163.64154443000001 175.17630729999999 1176.2421003033126 0.0000000000000000 0.0000000000000000 0.0000000000000000 0.0000000000000000 0.75428361647823639 0.18964682214392789 0.015893980820245231 0.12609035591462039 3923.0765068847472 0.12607134358693656 0.0000000000000000 
45.766867231402450 139.75758073429671 177.50364987439380 45.766867231402472 139.75758073429677 177.50364987439386 -2.2423381004335901 -1.1337245756219970e-06 2.3912228123118478e-07 -3.2160457815247679e-07 0.0000000000000000 -1.5301188457383930e-05 -8.3702816591757490e-07 -0.00018697781354831688 0.00045278907118135946 2.3870610792750661e-10 1.0879595373970573e-10 2.3544787198172159e-10 0.0000000000000000 45.329653981089926 139.38288308181924 175.57948981227980 1838.0408446142237 0.0000000000000000 0.0000000000000000 0.0000000000000000 0.0000000000000000 0.75459950869000181 0.18980563602869940 0.015913941471649370 0.12613218176201471 3922.0462257399490 0.12615045306169173 0.0000000000000000 
59.172247978523536 137.45578482633769 225.02022527277117 59.172247978523529 137.45578482633772 225.02022527277117 -1.7365523220833745 1.1051635833172862e-07 4.9965866059311219e-07 -4.9434523140979469e-07 -1.8900882157206669 -1.8084866878653741e-05 -8.2933720768618713e-07 -0.00023272135662771865 0.00025853194276914503 -3.5805449311914086e-11 -3.9521662162243237e-11 1.0217285177231070e-10 0.00016866776082658552 58.655494429999983 137.08453005000001 222.62532541000004 1283.0721019573000 0.0000000000000000 0.0000000000000000 0.0000000000000000 0.0000000000000000 0.75438787154947662 0.18969919618816847 0.015900558454023252 0.12609035591462059 3923.7264935974472 0.12609741009516381 0.0000000000000000 
37.729433278797494 150.65017565527981 221.01254909786746 37.729433278797494 150.65017565527981 221.01254909786752 -1.7827260196394719 2.9409198626848876e-07 1.9082993918947932e-07 -2.2510996404911919e-07 -2.0265159681948939 -1.3632184648559864e-05 -8.7342342855456501e-07 -0.00022886322277043675 0.00023452418361414744 -2.2679095394161043e-11 -4.3104805215977724e-11 6.5783832160650178e-11 0.00025396506028831523 37.339909825999996 150.25918557000000 218.65735269999999 1388.6032526015726 0.0000000000000000 0.0000000000000000 0.0000000000000000 0.0000000000000000 0.75438727679713746 0.18969892536572769 0.015900527971509672 0.12609035591462059 3923.4654941525246 0.12609729280808415 0.0000000000000000 
59.629653322098306 159.17482433859493 205.73880756220930 59.629653322098306 159.17482433859499 205.73880756220930 -2.0272093185058133 4.8000137484847784e-07 -1.1343615041553921e-07 -7.8012916155673219e-08 -2.0736144713651044 -1.8179848842003523e-05 -9.0190672391621524e-07 -0.00021415940526153769 0.00033620440181269921 -1.4869801889693005e-10 4.5655331113708118e-11 1.6053115381694251e-11 0.00026476343710734061 59.110185776999977 158.77108363999997 203.53492589999999 1913.3477276736232 0.0000000000000000 0.0000000000000000 0.0000000000000000 0.0000000000000000 0.75415563890009385 0.18958245441309127 0.015885887277565184 0.12609035591462045 3924.7841014373257 0.12603925864034074 0.0000000000000000 
45.771148600051554 132.07057833355412 200.02466900186766 45.771148600051532 132.07057833355418 200.02466900186758 -1.9142669842343536 -3.8334792381772220e-07 -9.5742458222892318e-08 3.1505018896790465e-07 0.0000000000000000 -1.5302077496892503e-05 -8.1134368634661048e-07 -0.00020865848391621314 0.00029609783556105925 3.0020298879522787e-11 3.8355853452278242e-11 -6.0062879308590479e-11 0.0000000000000000 45.333909946406948 131.70737839773392 197.87739647919071 1878.7089811415260 0.0000000000000000 0.0000000000000000 0.0000000000000000 0.0000000000000000 0.75431265339349929 0.18966143673102395 0.015895819728145369 0.12609404803844540 3924.5135825544412 0.12607863708791137 0.0000000000000000 
73.825055402748490 182.88260538067826 194.26519742554967 73.825055402748518 182.88260538067831 194.26519742554959 -2.6784418678520443 3.3584614713484942e-07 -4.5382740982881259e-07 1.2012460652025896e-07 -2.0072614346963040 -2.1127578209378939e-05 -9.8112122159932369e-07 -0.00020311392113731008 0.00054991445606281531 -3.2537682130208684e-10 1.2393640154185213e-10 -6.4865026253929561e-11 0.00042011818720608920 73.221359999000001 182.44340413000006 192.17498315000009 1916.8989385598338 0.0000000000000000 0.0000000000000000 0.0000000000000000 0.0000000000000000 0.75461162641402213 0.18981155251020895 0.015914662913026515 0.12612470672981174 3920.6809973403238 0.12615333962913852 0.0000000000000000 
82.901690301108900 141.96706266138781 211.76410584585878 82.901690301108871 141.96706266138787 211.76410584585878 -2.8434225861885425 2.6538588321532739e-07 3.0948744886940262e-07 -1.9848351119876032e-07 -2.0737870182356466 -2.3012376053510586e-05 -8.4441067074725307e-07 -0.00021995987569883860 0.00060680492026990765 -4.3167982348090671e-11 -1.9022204164561235e-10 1.2921144169956555e-10 0.00072984362069865533 82.244139041999972 141.58906020999996 209.50053243000002 2596.9063225776295 0.0000000000000000 0.0000000000000000 0.0000000000000000 0.0000000000000000 0.75439543676851128 0.18970302849774137 0.015901043761493001 0.12609944762423692 3922.7413359378152 0.12609934646092957 0.0000000000000000 
97.414670194729595 151.21545134412978 179.34060220690762 97.414670194729609 151.21545134412972 179.34060220690756 -4.1489224503113364 1.8049264313882542e-06 5.9656824656941283e-08 -4.5863380279845704e-07 0.0000000000000000 -3.3155245023334410e-05 3.4197699863829122e-07 -0.00018544013225282378 0.00092708923427550110 -1.9627514203176753e-10 6.2521834518779743e-11 3.6148833533677613e-11 0.0000000000000000 96.634805924592328 150.82018211309926 177.41298922508184 2674.5721001240636 0.0000000000000000 0.0000000000000000 0.0000000000000000 0.0000000000000000 0.75436202981243394 0.18968600216014411 0.015898874979440310 0.12608218600386445 3920.0542486170739 0.12609070381122148 0.0000000000000000 
111.03767231757772 161.22199757319979 196.78126889336593 111.03767231757773 161.22199757319967 196.78126889336605 -5.4134128353480238 1.4743141933259926e-06 2.0923512502864997e-07 -8.2782996907227773e-08 0.0000000000000000 -2.8854919999876660e-05 -9.0874691557885079e-07 -0.00020553610797507949 0.00091905903930802185 -8.0798518771861325e-11 -9.0452920069898869e-11 -5.1653275939088475e-13 0.0000000000000000 110.21317731831955 160.81519484644704 194.66612826377516 2907.4611518241991 0.0000000000000000 0.0000000000000000 0.0000000000000000 0.0000000000000000 0.75425837339471224 0.18963402850157077 0.015892360032948420 0.12606612006356516 3918.0225917973285 0.12606489966312753 0.0000000000000000 
69.413202700352741 138.14453201652566 192.89208478481228 69.413202700352727 138.14453201652574 192.89208478481220 -1.8550553331571775 3.6171360281323751e-07 3.5015302519923375e-07 1.1128183057589402e-06 0.0000000000000000 -2.0211440183381946e-05 -8.3163851313794446e-07 -0.00020179204477227541 0.00051848670949440005 -4.3316318047209925e-10 1.6827911164132486e-10 -2.2233294919870635e-10 0.0000000000000000 68.835684850694804 137.77224705707783 190.81547373645992 2302.4579037184249 0.0000000000000000 0.0000000000000000 0.0000000000000000 0.0000000000000000 0.75489512263155278 0.18995434088393692 0.015932642320349258 0.12615796159193007 3920.8006875980345 0.12622457712134996 0.0000000000000000 
84.549305398445100 175.34723067988585 176.40737159552330 84.549305398445100 175.34723067988583 176.40737159552336 -3.5964469671019765 8.1004810359067544e-07 5.4644068879090078e-07 -3.9899986555701352e-07 0.0000000000000000 -3.0147284958225993e-05 -7.2882207900844509e-07 -0.00018163578533688467 0.00080836913271215320 -3.3755449840623107e-10 -1.8474047056085433e-10 6.0998397852398992e-11 0.0000000000000000 83.849638243891135 174.91172786385235 174.51222656391082 1667.9065348682720 0.0000000000000000 0.0000000000000000 0.0000000000000000 0.0000000000000000 0.75461996876657988 0.18981585626017533 0.015915217706132360 0.12611436084866140 3919.3002303037788 0.12615549450451038 0.0000000000000000 
102.10451205499329 227.20912365465648 183.39823364610751 102.10451205499329 227.20912365465645 183.39823364610749 -5.8246464834488192 -8.4711385462060354e-07 6.6161248309007699e-07 1.8410559691612125e-07 -6.1811861063320768 -2.6999915211989304e-05 -1.1292288081832247e-06 -0.00019265244695793049 0.00094184887017793352 1.8031479832107717e-10 -1.5382989739035577e-10 9.4123899118542131e-11 0.00088002233063452415 101.33302161000000 226.70362169000003 181.41567680000000 527.87335979314730 0.0000000000000000 0.0000000000000000 0.0000000000000000 0.0000000000000000 0.75436288679321861 0.18968667082006954 0.015898988702550462 0.12609035591462042 3916.7829402978232 0.12609119189345350 0.0000000000000000 
110.06654250882076 213.32651472398013 194.14655771923671 110.06654250882072 213.32651472398007 194.14655771923665 -5.2144284819046192 2.4310556244656684e-07 5.2391783532275779e-08 -5.5132753155799236e-08 -4.9252561271608508 -2.8653261202993278e-05 -1.0828430230258590e-06 -0.00020299970832676761 0.00095312269521150852 -2.5948638107651969e-10 1.9481072267965118e-10 4.0946202260416760e-12 0.0010125320745958766 109.24780967000000 212.84177746000000 192.05751878999999 1255.4436111582911 0.0000000000000000 0.0000000000000000 0.0000000000000000 0.0000000000000000 0.75433737184403793 0.18967387376960734 0.015897384134204096 0.12609035591462037 3918.4251200174335 0.12608483114053667 0.0000000000000000 
92.393159471833357 213.50106178396615 179.91351374437428 92.393159471833329 213.50106178396615 179.91351374437423 -5.5732704938786117 6.1728414361865301e-08 1.1211808387525595e-06 -1.2309069129592727e-06 0.0000000000000000 -2.4983315816740070e-05 -1.0834262540448947e-06 -0.00018929775583037542 0.00088342493694622336 2.3283741921995674e-11 -3.5545630588498525e-10 1.9955823052934263e-10 0.0000000000000000 91.679290954562077 213.01606344388193 177.96547951144200 663.90724330950775 0.0000000000000000 0.0000000000000000 0.0000000000000000 0.0000000000000000 0.75434350118528970 0.18967676719061813 0.015897724077413748 0.12608852497131048 3917.7374115293064 0.12608617516658069 0.0000000000000000 
64.560744136124782 212.14737854672330 168.49590811179610 64.560744136124811 212.14737854672330 168.49590811179598 -5.4865693596774374 1.1283113723444773e-06 1.5796570850221715e-06 -9.9205771280168060e-07 0.0000000000000000 -2.0584702309008026e-05 -2.4121591232763009e-06 -0.00017667536819388006 0.00076418034345441697 -1.6753455411230724e-10 -3.4004065932953262e-10 3.9500353799028480e-11 0.0000000000000000 64.005185165032174 211.65254642520509 166.67194214610197 754.86350931875324 0.0000000000000000 0.0000000000000000 0.0000000000000000 0.0000000000000000 0.75443805842333811 0.18972424619912343 0.015903684151138200 0.12609325465564103 3916.9600761986071 0.12610979490798779 0.0000000000000000 
61.427428496323913 184.90017570105169 164.59702819658111 61.427428496323941 184.90017570105184 164.59702819658108 -3.9402142049734139 -1.9532563663891488e-07 6.1582472574230667e-08 -3.7316237401179353e-07 0.0000000000000000 -1.8553163714518650e-05 -9.8786250196658543e-07 -0.00017455278922756667 0.00069463256968437502 -7.6242459228441841e-11 6.3762615709500327e-11 1.3116722963562153e-10 0.0000000000000000 60.897293923099205 184.45795670032331 162.80073215801758 1456.3555990979894 0.0000000000000000 0.0000000000000000 0.0000000000000000 0.0000000000000000 0.75459665871305737 0.18980422248828796 0.015913766216557806 0.12613069382619355 3918.2005694219270 0.12614977902960156 0.0000000000000000 
88.979182637355876 196.50282009752993 140.47916162997589 88.979182637355876 196.50282009752999 140.47916162997583 -6.3991000847655313 1.4559450217477950e-07 1.0925455607566848e-06 -4.9322300986391953e-07 0.0000000000000000 -2.4274390519385406e-05 -1.0266302408745709e-06 -0.00015133485615986819 0.00099351378746695114 -5.7322438714625159e-11 -3.9690990847107003e-11 3.9820889255362294e-11 0.0000000000000000 88.285570817050015 196.04324661832075 138.92179778727578 2284.4992455537940 0.0000000000000000 0.0000000000000000 0.0000000000000000 0.0000000000000000 0.75427449097884869 0.18964223691545004 0.015893404773030247 0.12606368250118777 3916.5310006864461 0.12606904265686578 0.0000000000000000 
82.488087537519107 174.91149824233321 155.49025405719206 82.488087537519078 174.91149824233332 155.49025405719206 -4.3015352748413598 4.3250945195867832e-07 4.8149706731358358e-07 -2.9929382400770485e-07 0.0000000000000000 -2.5410544228844118e-05 -2.4653256144238475e-06 -0.00016283299843747188 0.00096049055946683076 -4.2399913045820518e-11 -3.5118449934511931e-11 9.8835100631369778e-11 0.0000000000000000 81.814121362732124 174.46733636348887 153.79871785113039 1849.3455604645501 0.0000000000000000 0.0000000000000000 0.0000000000000000 0.0000000000000000 0.75441981427416860 0.18971540957663269 0.015902615545239970 0.12610761916543081 3919.8957345080116 0.12610556454048727 0.0000000000000000 
77.248594334038359 237.99210524499037 173.36496034698430 77.248594334038344 237.99210524499037 173.36496034698436 -7.5064576172476905 2.7870482932691271e-07 -7.8091442383055612e-08 -9.1255870999973011e-07 -7.2659898637606712 -2.1838489126901898e-05 -1.1652578382204126e-06 -0.00018299355499279413 0.0010086172800105970 -5.2036240715107562e-11 1.2668024262714855e-11 -4.7595895863015005e-11 0.0010209919496093763 76.624585496999998 237.47047479999995 171.48180167999999 450.61312636181810 0.0000000000000000 0.0000000000000000 0.0000000000000000 0.0000000000000000 0.75442761760052979 0.18971946297282374 0.015903141549974988 0.12609035591462039 3913.2449091224162 0.12610766391198197 0.0000000000000000 
67.181991515046278 237.83008101972538 157.59992491415105 67.181991515046292 237.83008101972533 157.59992491415102 -8.5572950987181358 -6.7292047924528326e-08 -4.9909548233730327e-08 -9.2717592802423723e-07 -8.9839566705213780 -1.9748120669573300e-05 -1.1647164590566914e-06 -0.00016781677568927789 0.00097702075491188701 2.2871197391092752e-11 6.2615714502703212e-12 -1.3224169067360579e-11 0.00098667102355154716 66.617712469000011 237.30869291999991 155.87294816000005 715.16986369778181 0.0000000000000000 0.0000000000000000 0.0000000000000000 0.0000000000000000 0.75428057558311701 0.18964504898280943 0.015893727165106120 0.12607013569795184 3911.9347350223838 0.12607031673425378 0.0000000000000000 
87.919172263539409 237.44195410480918 148.64359831937389 87.919172263539409 237.44195410480918 148.64359831937392 -8.3814394452464533 -4.2821948936512764e-07 -3.7795939319642944e-08 -4.9844900845898256e-07 -9.4585900273441705 -2.4054275323204255e-05 -1.1634196245272096e-06 -0.00015919464525809834 0.00097453168224958067 5.0404998552095678e-12 -2.6470281972685764e-11 -3.2693251034217161e-11 0.00097760371866120028 87.231849972999981 236.92114653999997 147.00535059000001 1226.5804134212974 0.0000000000000000 0.0000000000000000 0.0000000000000000 0.0000000000000000 0.75435765892056306 0.18968401410399063 0.015898651187120222 0.12607374189821782 3911.4487503703654 0.12608985268916276 0.0000000000000000 
87.709485110954063 225.28373553997343 163.90788912686324 87.709485110954105 225.28373553997338 163.90788912686324 -7.2085571815108338 -5.0387598948496161e-07 6.6963411605074362e-07 -6.4494097583303884e-07 0.0000000000000000 -2.4010732984913737e-05 -1.1227955314940807e-06 -0.00017388936467915839 0.00098688689226098469 2.9311624695879501e-11 -1.0529979603120307e-10 -6.5297236024335696e-11 0.0000000000000000 87.023406990868523 224.78111344523825 162.11842028882040 681.06850806740897 0.0000000000000000 0.0000000000000000 0.0000000000000000 0.0000000000000000 0.75427368294511632 0.18964148868951639 0.015893267679796211 0.12607264329829959 3915.1892517088804 0.12606850175557180 0.0000000000000000 
87.506042353381048 196.93228328393403 187.80541549642419 87.506042353381019 196.93228328393400 187.80541549642425 -4.1026232093306696 6.5795363913079656e-07 -1.6981037591335393e-07 -3.3920893637934718e-07 0.0000000000000000 -2.3968487322056916e-05 -1.0280652103511478e-06 -0.00019689517934334824 0.00078968054834473969 -3.6978979972622567e-10 3.6324844721847737e-10 7.0001942922394336e-11 0.0000000000000000 86.821171352877627 196.47206744171046 185.77919734079927 1095.9217422697654 0.0000000000000000 0.0000000000000000 0.0000000000000000 0.0000000000000000 0.75438726077228102 0.18969874390103805 0.015900483448565615 0.12609828407554147 3920.3963444824194 0.12609711773256954 0.0000000000000000 
30.365824570808641 214.93492266563968 132.38114275767927 30.365824570808634 214.93492266563970 132.38114275767927 -5.5748731352676808 6.0807328631106814e-08 4.6720663429731490e-07 5.9822405032197540e-08 -6.0413815597061538 -1.2103103223886245e-05 -1.0882171798121123e-06 -0.00014353900655489360 0.00077321375714750986 -1.5608281443934158e-11 -7.3624676483975193e-11 -7.6756228202106860e-12 0.00079486512667424430 30.019992800000004 214.44777965000000 130.90400481000003 1639.8558849024062 0.0000000000000000 0.0000000000000000 0.0000000000000000 0.0000000000000000 0.75434634538007572 0.18967836587343603 0.015897946290867170 0.12609035591462042 3917.5436200555746 0.12608705875115153 0.0000000000000000 