# For a description of the Tecplot format see the Tecplot User's guide.
#
Variables=x,y,z,s_u,s_v,s_w,s_p,mono_f_vel_u,mono_f_vel_v,mono_f_vel_w,const,u_nu,v_nu,w_nu,p_nu,x_nu,y_nu,z_nu,const,u_ref,v_ref,w_ref,vol_ref,x_ref,y_ref,z_ref,const,I1,I2,I3,J,p1,p2,p3
Zone f=fepoint, n=246, e=987, et=brick, c=black
39.3493 187.705 159.196 39.349299908790258 187.70542966615434 159.19597522174314 -15.037730995120562 -8.8865961812066345e-07 3.4196183165604692e-07 -2.8234063465631659e-07 -13.715663819795337 -1.3296740927759565e-05 -2.4131952147676827e-07 -0.00026708257577490180 0.00094104222906962753 5.9572434467301486e-11 -9.0416660469964714e-11 -1.3318497840501514e-11 0.00093095132271276218 37.813509013000001 185.98771463999995 152.49007815000002 1568.1286420541724 0.0000000000000000 0.0000000000000000 0.0000000000000000 0.0000000000000000 0.76725319725852092 0.19620908507098869 0.016724039885466953 0.12927702783602166 3791.6755720941674 0.12932154176850891 0.0000000000000000 
39.290024462960901 203.40263128001527 173.31039045141424 39.290024462960901 203.40263128001521 173.31039045141418 -14.094267602178194 -1.4446350806571416e-06 5.7698461472047117e-08 -5.0640789818115705e-06 -11.915956744912704 -1.3285024142994928e-05 -2.5401153092019513e-07 -0.00028851145825403707 0.00083178443952465931 7.7257509405995124e-11 -8.6567086453176187e-11 4.2789941037464323e-10 0.00067849429524109934 37.755586870999998 201.59457435000007 166.06645798000000 1115.6658590402926 0.0000000000000000 0.0000000000000000 0.0000000000000000 0.0000000000000000 0.76714050188808802 0.19615059813120264 0.016716451240738901 0.12928371317954543 3795.4299346310891 0.12929211792165460 0.0000000000000000 
66.888856731127930 205.21982392176216 153.82769716545798 66.888856731127888 205.21982392176224 153.82769716545806 -19.057687489581266 3.1250156918026565e-06 5.6505052725665482e-06 -2.6150184600834730e-06 0.0000000000000000 -2.0810785142949634e-05 -5.3022905596250106e-06 -0.00025652974213417375 0.0010648236895326676 -1.3042901504336434e-10 -2.9677584147484329e-10 9.3584459855227706e-11 0.0000000000000000 64.706898088665852 203.32599865957309 147.35284761981995 1170.9507322714735 0.0000000000000000 0.0000000000000000 0.0000000000000000 0.0000000000000000 0.76680768137909416 0.19598181341514706 0.016695054135178061 0.12920160353131219 3787.1763808997507 0.12920915514720879 0.0000000000000000 
59.983400361614379 220.70148314919129 160.70956859248042 59.983400361614422 220.70148314919143 160.70956859248051 -22.982171117951371 2.4871490329627121e-06 6.5290391013777538e-06 -4.4263045518730754e-06 0.0000000000000000 -1.7375416296205867e-05 -2.6799856933656940e-07 -0.00026938055369485348 0.0011418648405534741 3.5348631961701554e-12 -3.9475530411791007e-10 7.4392636706812144e-11 0.0000000000000000 57.976517148132935 218.79386635806736 153.94597399654558 871.12382118538517 0.0000000000000000 0.0000000000000000 0.0000000000000000 0.0000000000000000 0.76643444400986027 0.19578772392212587 0.016669825498472502 0.12917920449411099 3782.7921161082636 0.12911166739997168 0.0000000000000000 
109.29959109113388 204.77037274339702 174.79128099478672 109.29959109113391 204.77037274339699 174.79128099478669 -17.182183174871973 -7.8886589878370309e-08 1.0829086440531886e-06 -1.4802809716428808e-06 0.0000000000000000 -2.7123586960220436e-05 -2.5511743229067463e-07 -0.00029075978587056461 0.0011680916418498506 -1.4406368957931428e-10 4.2651317077443040e-11 -5.7927335199157963e-12 0.0000000000000000 106.16678147036436 202.95444406841523 167.49089761680582 1451.6544664497774 0.0000000000000000 0.0000000000000000 0.0000000000000000 0.0000000000000000 0.76716162724158810 0.19616137619115503 0.016717822355027782 0.12925184438527706 3790.0899454026844 0.12929738233334032 0.0000000000000000 
95.656998235597598 215.36078503478365 159.16519160983339 95.656998235597655 215.36078503478356 159.16519160983341 -22.169442602056819 -1.9763819756386698e-06 3.4414372741610765e-06 -4.6343105664872382e-06 0.0000000000000000 -2.4426900092633375e-05 -2.6368033889667686e-07 -0.00026703583925802304 0.0011758980336261551 -1.4516976517869599e-11 -1.8087403652948293e-10 3.8756728124739556e-11 0.0000000000000000 92.835659459041835 213.48390549527133 152.46046799605259 1374.0431229362807 0.0000000000000000 0.0000000000000000 0.0000000000000000 0.0000000000000000 0.76638606364988948 0.19576530353648181 0.016667260875599613 0.12915670448458086 3782.1809280286161 0.12910172090139491 0.0000000000000000 
108.92393288151843 180.46454702375112 174.49059960980773 108.92393288151837 180.46454702375107 174.49059960980773 -16.976114953848690 4.1132330837757175e-06 -1.4830211628761132e-06 9.6872993144138919e-08 0.0000000000000000 -2.7049331814188452e-05 -2.3546489846815175e-07 -0.00029030328334411770 0.0011906978121189642 -1.3523486606771754e-10 5.6448546410752781e-12 -6.6304555236529045e-11 0.0000000000000000 105.79969982540383 178.78850535694073 167.20167807608388 2450.7686744678872 0.0000000000000000 0.0000000000000000 0.0000000000000000 0.0000000000000000 0.76630419678949036 0.19572205859898539 0.016661572973755548 0.12913766970158161 3794.9347552503573 0.12907966113211169 0.0000000000000000 
78.158196377939561 195.09592614203979 163.85547553931457 78.158196377939532 195.09592614203981 163.85547553931463 -16.074644468491382 7.0048528608905725e-07 3.7561105023046084e-06 -2.7465011064974111e-06 0.0000000000000000 -2.4186695329263407e-05 -5.7440146709833193e-06 -0.00026913555019902202 0.0010552150894044031 -4.6618812912651488e-11 -1.6520819024490460e-10 5.8483430800910756e-11 0.0000000000000000 75.717375094302042 193.21622810126507 157.03338180528999 1144.4826376458880 0.0000000000000000 0.0000000000000000 0.0000000000000000 0.0000000000000000 0.76753881793399270 0.19635847773332638 0.016743559145974141 0.12926923265115606 3786.7566791814606 0.12939678861175621 0.0000000000000000 
123.85202822677846 179.60613241417718 139.31533546893979 123.85202822677844 179.60613241417724 139.31533546893979 -21.553943088950540 -6.4172383357678199e-07 -2.9993814675258303e-06 -3.5014738855089989e-06 -21.513505366641031 -3.0000119762840782e-05 -2.3477082677914041e-07 -0.00023689925705228101 0.0012488140643422206 -5.0167908861730855e-11 1.1072918304862451e-10 3.5550183985982842e-11 0.0013453538161170631 120.38697531999998 177.93503117000000 133.36727978000002 3315.6872353797526 0.0000000000000000 0.0000000000000000 0.0000000000000000 0.0000000000000000 0.76699873367059379 0.19607894650776470 0.016707405471777240 0.12917951154422108 3781.3051705725588 0.12925689924906150 0.0000000000000000 
125.92797729922373 152.17614077353022 173.36610430170805 125.92797729922373 152.17614077353025 173.36610430170811 -21.551079215391830 2.9997616759556092e-07 2.9084632171989466e-07 1.1278019168971690e-06 0.0000000000000000 -3.0410465841734784e-05 -2.1259221649749804e-07 -0.00028859604452002863 0.0012615384359209514 -4.4969309365996146e-11 7.0919542489580539e-11 2.9029479935176149e-11 0.0000000000000000 122.41552888508200 150.66290700972726 166.12004804243418 2788.4559803272532 0.0000000000000000 0.0000000000000000 0.0000000000000000 0.0000000000000000 0.76569374837888649 0.19540962392130770 0.016621600248596193 0.12911619393653767 3789.2682339672524 0.12892507830460515 0.0000000000000000 
106.35527510746343 160.57513559463473 157.57059877790883 106.35527510746346 160.57513559463482 157.57059877790883 -18.128831167960364 2.8406019683754235e-06 -3.1644189935592136e-06 -2.1349692593491566e-06 0.0000000000000000 -3.5453585434763663e-05 3.2882033831006773e-06 -0.00025907218404493300 0.0012088277516200962 -4.7288330494340865e-11 7.3137538074149407e-11 4.7606749672087093e-11 0.0000000000000000 103.16264437007636 159.03337825173907 151.00577047027593 2614.5647304445974 0.0000000000000000 0.0000000000000000 0.0000000000000000 0.0000000000000000 0.76540735005810856 0.19526490760227458 0.016603313602002397 0.12906593558779805 3798.4293736792042 0.12885455077779157 0.0000000000000000 
139.15964000836811 136.64200853101113 218.08156871950419 139.15964000836811 136.64200853101110 218.08156871950422 -15.404082715025126 1.7301239552609869e-06 4.3727895681136804e-06 -4.1139323305944933e-06 -12.830072864931580 -3.3025925479046870e-05 -2.0003204281859865e-07 -0.00035648425790513199 0.00092082468377586209 -1.1813287402843315e-10 -3.6702036502958625e-10 1.3015877014351730e-10 0.00082881940416778383 135.34510260000002 135.21817816000001 209.13097830999999 2383.2023779596761 0.0000000000000000 0.0000000000000000 0.0000000000000000 0.0000000000000000 0.76712378033780471 0.19614204914708333 0.016715359404247954 0.12927220928650601 3791.8304511980177 0.12928796497842307 0.0000000000000000 
119.73341268947533 102.38167485037596 198.61811933289522 119.73341268947532 102.38167485037594 198.61811933289525 -18.386720465653610 -1.7977591866726023e-06 -1.9205608144878251e-06 -4.3169388619515462e-06 -20.547578333731163 -2.9186006458514772e-05 -1.7233077298506316e-07 -0.00032693432876773620 0.0011483106733400348 1.3921870301574080e-10 1.8332847805871412e-10 3.9085666246689184e-10 0.0010727687762899351 116.36239092999996 101.15502254000000 190.40946719000002 2640.5657475930620 0.0000000000000000 0.0000000000000000 0.0000000000000000 0.0000000000000000 0.76778258656097742 0.19648139556413755 0.016759043630062483 0.12927220928650604 3776.3242040966652 0.12945704031841473 0.0000000000000000 
125.23630251913531 109.40127193779297 229.67961470261025 125.23630251913531 109.40127193779298 229.67961470261025 -12.723358167409952 -2.2468060128075346e-06 -5.1175165333049347e-06 -4.9019137997618964e-07 -9.6428541031522048 -3.0273744749509519e-05 -1.7800648333167334e-07 -0.00037409272135335923 0.00073177641035027975 1.8555922230623925e-10 2.6733204643223263e-10 -1.1773777032756631e-10 0.00057944830140463875 121.73964556999999 108.13421982999998 220.28691180000004 1907.3938422647439 0.0000000000000000 0.0000000000000000 0.0000000000000000 0.0000000000000000 0.76697791767745294 0.19606668893051268 0.016705630730578156 0.12927220928650615 3798.7671628509788 0.12925028104592559 0.0000000000000000 
107.89592354430346 123.28610549696624 215.58042087834056 107.89592354430350 123.28610549696624 215.58042087834056 -11.834480383091085 2.9484758831903809e-07 -2.8250696539081852e-07 -5.0185845935847196e-06 0.0000000000000000 -2.6846128568847050e-05 -1.8923310163287968e-07 -0.00035268694839118986 0.00078691235754317298 -3.0615180876178284e-11 -1.2471337713067843e-11 2.0557622970058746e-10 0.0000000000000000 104.79516072874441 121.93914218401807 206.72517314201556 2433.5838456336692 0.0000000000000000 0.0000000000000000 0.0000000000000000 0.0000000000000000 0.76698241184276317 0.19606982755103844 0.016706133418035191 0.12927220928650607 3800.2289259932641 0.12925224878349173 0.0000000000000000 
39.297747029059913 164.71430943568481 161.46995109794048 39.297747029059913 164.71430943568478 161.46995109794045 -8.6003452435668102 1.2047928825937016e-06 2.7140352827078418e-06 2.2764170479412578e-06 -9.5964346649468624 -1.3286550636815164e-05 -2.2272997746153322e-07 -0.00027053498672668930 0.00073514104089135652 -1.2531849857472789e-10 -1.7142533544097383e-10 3.1579701600093024e-11 0.00071338133322555080 37.763133124999982 163.12891490999996 154.67737105000003 1609.7391759139125 0.0000000000000000 0.0000000000000000 0.0000000000000000 0.0000000000000000 0.76660401814193035 0.19587675623602555 0.016681509306304319 0.12929529066920639 3804.9041308166552 0.12915697047272842 0.0000000000000000 
39.336256200949627 177.96387503124686 173.47849702109187 39.336256200949620 177.96387503124691 173.47849702109187 -10.123214134034887 7.3157722604965147e-07 1.4437224448419289e-06 -1.6843284018879549e-06 -13.428868229967852 -1.3294162623522789e-05 -2.3344296651295335e-07 -0.00028876668214583573 0.00061479608220858849 -3.2837021126064916e-11 -6.9549498230144164e-11 1.7212847961964768e-10 0.00077690967497412737 37.800763103000001 176.30222544999998 166.22815640000002 1278.4532315353756 0.0000000000000000 0.0000000000000000 0.0000000000000000 0.0000000000000000 0.76683320796184107 0.19599479293223568 0.016696711789840255 0.12927220928650612 3798.7379413889989 0.12921581372951721 0.0000000000000000 
30.655746376973116 165.22990636409830 182.78126542635343 30.655746376973124 165.22990636409830 182.78126542635343 -7.7565131630311344 1.0770992881166754e-06 1.2477602245585781e-06 -2.8304065540074000e-06 -8.3674794761418063 -1.1578314541792929e-05 -2.2314686476399006e-07 -0.00030289039382513927 0.00050048867542223864 -3.9470039613207907e-11 -2.9754292118535140e-11 1.5329376090593601e-10 0.00048049857993711238 29.318435967000010 163.64154443000001 175.17630729999999 1176.2421003033126 0.0000000000000000 0.0000000000000000 0.0000000000000000 0.0000000000000000 0.76724666528641261 0.19620608505938533 0.016723700226687076 0.12927220928650601 3801.5040238319948 0.12932017545575622 0.0000000000000000 
47.041053502804949 140.83082127327896 183.20042616455595 47.041053502804964 140.83082127327904 183.20042616455603 -6.6092361920612692 -4.0497907956660393e-06 1.2760949982257898e-06 -5.3820799687438024e-07 0.0000000000000000 -1.4817144783796367e-05 -2.0341893569586489e-07 -0.00030352677486988894 0.00054442488192535268 2.6753549035676352e-10 1.7057655440277379e-10 2.4961320857385916e-10 0.0000000000000000 45.329653981089926 139.38288308181924 175.57948981227980 1838.0408446142237 0.0000000000000000 0.0000000000000000 0.0000000000000000 0.0000000000000000 0.76660220168486271 0.19587249002160420 0.016680531931349926 0.12928609903988814 3813.7665199720036 0.12915348709309704 0.0000000000000000 
60.678241396510266 138.51916398983599 232.11070024113658 60.678241396510280 138.51916398983599 232.11070024113664 -5.1807922625062348 2.0390437832997174e-07 1.8388572085414187e-06 -1.7393438509685735e-06 -5.7442429469667085 -1.7512763263560768e-05 -2.0154983515485728e-07 -0.00037778366038865313 0.00033476876171394690 -4.7918850009293093e-11 -5.5607967585150659e-11 1.4137697420529561e-10 0.00024070838736185579 58.655494429999983 137.08453005000001 222.62532541000004 1283.0721019573000 0.0000000000000000 0.0000000000000000 0.0000000000000000 0.0000000000000000 0.76705273891310755 0.19610460839357333 0.016710429449146035 0.12927220928650615 3808.4571747537116 0.12926896874088278 0.0000000000000000 
38.864635461231636 151.77008235095235 227.98547575933574 38.864635461231629 151.77008235095238 227.98547575933577 -5.4035165142545614 1.0799853799090373e-06 5.7024906603593131e-07 -7.1117414652227394e-07 -6.1702952209085717 -1.3200938890345348e-05 -2.1226389590456307e-07 -0.00037152063431400428 0.00030568410653715418 -3.9760365532800827e-11 -5.5313618790221700e-11 8.7813680890058924e-11 0.00033828522553607968 37.339909825999996 150.25918557000000 218.65735269999999 1388.6032526015726 0.0000000000000000 0.0000000000000000 0.0000000000000000 0.0000000000000000 0.76703686869945720 0.19609793295404174 0.016709761013852954 0.12927220928650615 3807.6949257793594 0.12926623791696557 0.0000000000000000 
61.143556237735758 160.33125241361475 212.26374332342866 61.143556237735758 160.33125241361475 212.26374332342860 -6.0849298037054265 1.7343709675015675e-06 -4.9245704659462675e-07 -1.9254918899380878e-07 -6.5642128257193564 -1.7604740530696818e-05 -2.1918606063456216e-07 -0.00034765147986193229 0.00042549506093192321 -1.8269323242208038e-10 6.0551393560057222e-11 1.1449465986226915e-11 0.00031430428756728049 59.110185776999977 158.77108363999997 203.53492589999999 1913.3477276736232 0.0000000000000000 0.0000000000000000 0.0000000000000000 0.0000000000000000 0.76676613710194075 0.19596002116884081 0.016692207343749162 0.12927220928650598 3807.4619594787505 0.12919834856512843 0.0000000000000000 
47.045408905296782 133.11088614520057 206.38200456690598 47.045408905296803 133.11088614520065 206.38200456690603 -5.7414725653417467 -1.3735001339636345e-06 -3.0364432168727019e-07 9.9256530579122540e-07 0.0000000000000000 -1.4818005704908366e-05 -1.9717696986276678e-07 -0.00033872166687065624 0.00038459251540330994 4.0274875423426960e-11 4.4077260437963732e-11 -7.6033984159343453e-11 0.0000000000000000 45.333909946406948 131.70737839773392 197.87739647919071 1878.7089811415260 0.0000000000000000 0.0000000000000000 0.0000000000000000 0.0000000000000000 0.76731190996627674 0.19623861137562018 0.016727751771422609 0.12928258218420363 3806.7748547404635 0.12933565931720012 0.0000000000000000 
75.584426590642082 184.14060255221872 200.45360314125085 75.584426590642110 184.14060255221872 200.45360314125085 -7.8336309202618937 7.0402688439369854e-07 -1.8059510923833353e-06 4.5949923109686427e-07 -5.7820269416251042 -2.0459220289925639e-05 -2.3843717178451129e-07 -0.00032972100934469672 0.00064856139354179092 -3.3709892792135074e-10 1.3573861101843744e-10 -7.6824675087231408e-11 0.00043627966626598230 73.221359999000001 182.44340413000006 192.17498315000009 1916.8989385598338 0.0000000000000000 0.0000000000000000 0.0000000000000000 0.0000000000000000 0.76855173225484064 0.19687140847242732 0.016808481720282483 0.12938629824692632 3793.1499982543219 0.12964767854970430 0.0000000000000000 
84.818015541712086 143.04976908343667 218.46576836365304 84.818015541712114 143.04976908343676 218.46576836365301 -8.4503671512429914 6.1895918367792248e-07 1.0717937677313234e-06 -7.3493802906751831e-07 -5.4270952592632389 -2.2284393719207429e-05 -2.0521305765797138e-07 -0.00035706756006725904 0.00074270828688632201 8.5913089359078173e-12 -1.9986389696192965e-10 1.5605696705942214e-10 0.00084787960569854162 82.244139041999972 141.58906020999996 209.50053243000002 2596.9063225776295 0.0000000000000000 0.0000000000000000 0.0000000000000000 0.0000000000000000 0.76737844284803813 0.19627325966917000 0.016732257254657195 0.12929541466701891 3804.1215682796078 0.12935293394135397 0.0000000000000000 
99.718807914314908 152.36823798002018 185.07699868830917 99.718807914314894 152.36823798002021 185.07699868830915 -13.072658434784595 6.4902114521900943e-06 6.6190482066405518e-08 -1.6735853840106024e-06 0.0000000000000000 -3.6353953662184435e-05 3.7246943713937247e-06 -0.00029979899162251613 0.0011187727013433596 -2.9907180182864134e-10 1.5772022770506389e-10 8.1224141887579891e-11 0.0000000000000000 96.634805924592328 150.82018211309926 177.41298922508184 2674.5721001240636 0.0000000000000000 0.0000000000000000 0.0000000000000000 0.0000000000000000 0.76603214043954060 0.19557903501174687 0.016642785857335137 0.12911478825935724 3804.9753081446679 0.12900712390532035 0.0000000000000000 
113.44052769340168 162.38719616687300 203.04347297205015 113.44052769340168 162.38719616687294 203.04347297205007 -17.351272224074130 5.5706534309556367e-06 7.3938904045000258e-07 -1.9183923308734233e-07 0.0000000000000000 -2.7942112389434115e-05 -2.2084838235958412e-07 -0.00033365301895060812 0.0011229026674648029 -1.7510080701146054e-10 -9.0143732367202167e-11 -6.7802058926437922e-12 0.0000000000000000 110.21317731831955 160.81519484644704 194.66612826377516 2907.4611518241991 0.0000000000000000 0.0000000000000000 0.0000000000000000 0.0000000000000000 0.76640591048668949 0.19577434241281635 0.016668286692103681 0.12911806230581238 3791.3024489058162 0.12910555301164137 0.0000000000000000 
71.096283702582483 139.21086191715597 199.04021602247343 71.096283702582483 139.21086191715588 199.04021602247337 -5.2992863552784018 7.2208187251646778e-07 1.8619290250488722e-06 4.0086201655149099e-06 0.0000000000000000 -1.9572063724382360e-05 -2.0210912010654167e-07 -0.00032757516723624924 0.00064479306603720701 -5.0539787386265910e-10 3.0218105652608240e-10 -1.1791841615751973e-10 0.0000000000000000 68.835684850694804 137.77224705707783 190.81547373645992 2302.4579037184249 0.0000000000000000 0.0000000000000000 0.0000000000000000 0.0000000000000000 0.76681105349019407 0.19598017678933563 0.016694398003781627 0.12931922599122750 3816.6981320769401 0.12920755004498577 0.0000000000000000 
86.608808407905741 176.61069804727316 182.04311551353479 86.608808407905741 176.61069804727319 182.04311551353479 -10.691459491560833 2.4890970432240749e-06 1.5872089086821679e-06 -1.0487056132590870e-06 0.0000000000000000 -3.3072276274994857e-05 1.6568529229634143e-06 -0.00029433773084503611 0.00092457368198212847 -3.7014337445122570e-10 -2.6355526468410160e-10 5.1551209322223612e-11 0.0000000000000000 83.849638243891135 174.91172786385235 174.51222656391082 1667.9065348682720 0.0000000000000000 0.0000000000000000 0.0000000000000000 0.0000000000000000 0.76809646896538541 0.19663640308273350 0.016778157051293759 0.12927582869347615 3793.5257883795703 0.12952949346235607 0.0000000000000000 
104.35289435545205 228.65702490895364 189.26790273298994 104.35289435545204 228.65702490895364 189.26790273298997 -18.051956081041258 -3.0764450091551184e-06 2.3669641398994016e-06 7.3735258626027097e-07 -19.294298611861603 -2.6145789531417662e-05 -2.7443105032887161e-07 -0.00031273857998503907 0.0011183153368227077 2.2814097869069331e-10 -2.0035323149979090e-10 1.0804446127195547e-10 0.0010636597277185677 101.33302161000000 226.70362169000003 181.41567680000000 527.87335979314730 0.0000000000000000 0.0000000000000000 0.0000000000000000 0.0000000000000000 0.76703175006354740 0.19609514189761065 0.016709383799292932 0.12927220928650612 3786.2552254375655 0.12926480345726374 0.0000000000000000 
112.45260501361948 214.71493997569675 200.33148363866712 112.45260501361948 214.71493997569675 200.33148363866712 -16.033306669156072 8.8087679342706300e-07 1.1633642574306378e-07 -9.8040571009483927e-08 -14.988021189791873 -2.7746832935049426e-05 -2.6315813639321561e-07 -0.00032953560424719974 0.0011099669651755994 -2.8387654992301124e-10 2.0168996332043466e-10 -1.2923530869052020e-12 0.0011575085258567265 109.24780967000000 212.84177746000000 192.05751878999999 1255.4436111582911 0.0000000000000000 0.0000000000000000 0.0000000000000000 0.0000000000000000 0.76702945726901628 0.19609457635208494 0.016709389717604210 0.12927220928650618 3790.9417380907253 0.12926479841385421 0.0000000000000000 
94.473612119696526 214.89023483182413 185.68097324480743 94.473612119696540 214.89023483182422 185.68097324480735 -17.238074621532970 2.0962727718728883e-07 3.9160764981071096e-06 -4.0659320015148493e-06 0.0000000000000000 -2.4192984022120001e-05 -2.6329988367379542e-07 -0.00030729280773855727 0.0010569567366080629 2.8212700675064460e-11 -4.4223619184656745e-10 2.1368553699694596e-10 0.0000000000000000 91.679290954562077 213.01606344388193 177.96547951144200 663.90724330950775 0.0000000000000000 0.0000000000000000 0.0000000000000000 0.0000000000000000 0.76704450481574216 0.19609958168135783 0.016709681570959919 0.12926197744057999 3788.6894500255103 0.12926587050980623 0.0000000000000000 
66.175309707576474 213.56332388209734 173.89999979914572 66.175309707576446 213.56332388209736 173.89999979914580 -17.226511378956705 3.8904366163473300e-06 5.7815916089395678e-06 -3.5956326898182790e-06 0.0000000000000000 -2.1056107367882359e-05 -3.5957024604331597e-06 -0.00028620331622856635 0.00097075721143191976 -2.4846436164236170e-10 -4.1108464263414961e-10 9.1718420232717985e-12 0.0000000000000000 64.005185165032174 211.65254642520509 166.67194214610197 754.86350931875324 0.0000000000000000 0.0000000000000000 0.0000000000000000 0.0000000000000000 0.76728648392513665 0.19622187388312462 0.016725134419780904 0.12927055125935744 3786.5290183578372 0.12932547979411002 0.0000000000000000 
62.972418714977863 186.16681656616447 169.91524308113634 62.972418714977884 186.16681656616453 169.91524308113637 -12.005137165866961 -1.0716002917044270e-06 -2.9523172760305943e-08 -1.0398128481465278e-06 0.0000000000000000 -1.7966245814848847e-05 -2.4007547660964690e-07 -0.00028335685478109168 0.00083968032023749601 -3.2197921235520562e-11 5.1375860306238654e-11 1.1102714476366680e-10 0.0000000000000000 60.897293923099205 184.45795670032331 162.80073215801758 1456.3555990979894 0.0000000000000000 0.0000000000000000 0.0000000000000000 0.0000000000000000 0.76789701450285131 0.19653839960233285 0.016766144852755235 0.12939521202021712 3790.0783894767656 0.12948408990591978 0.0000000000000000 
91.000600466034584 197.81916911991433 145.08998044330437 91.000600466034527 197.81916911991442 145.08998044330434 -20.369830286979830 3.7284691918786413e-07 4.0396739928975103e-06 -1.9120851471264001e-06 0.0000000000000000 -2.3506485135493808e-05 -2.4949701304954891e-07 -0.00024566647741441905 0.0011711442920693863 -4.7818766698765380e-11 -1.0527810129244247e-10 5.6841436094066375e-11 0.0000000000000000 88.285570817050015 196.04324661832075 138.92179778727578 2284.4992455537940 0.0000000000000000 0.0000000000000000 0.0000000000000000 0.0000000000000000 0.76686264309380159 0.19600933317996996 0.016698495665408861 0.12916407313941389 3783.4770993060079 0.12922274961006819 0.0000000000000000 
84.450174334351601 176.21577160643051 160.50977163120041 84.450174334351630 176.21577160643039 160.50977163120035 -13.056090826818114 1.2833928967984699e-06 1.6266097618570133e-06 -1.2945215514046314e-06 0.0000000000000000 -2.8918147854159610e-05 -1.1326949420999167e-06 -0.00026440641627647056 0.0010720048094115967 -2.4881029002773238e-11 -1.2052556981867799e-10 5.9878322495262919e-11 0.0000000000000000 81.814121362732124 174.46733636348887 153.79871785113039 1849.3455604645501 0.0000000000000000 0.0000000000000000 0.0000000000000000 0.0000000000000000 0.76668938742335879 0.19591517659370095 0.016685735512374903 0.12922289089633654 3801.6299587866333 0.12917249004672413 0.0000000000000000 
79.067165689823682 239.48620304952502 178.94034560516477 79.067165689823682 239.48620304952507 178.94034560516477 -24.136098614391734 9.1049854774879579e-07 -2.7139355630670092e-07 -3.4191979730130371e-06 -23.138140376010210 -2.1147641974916805e-05 -2.8318699807350361e-07 -0.00029705900668752783 0.0012619710073425547 -5.2350363050072979e-11 2.4438492247704479e-11 -2.6046194722772783e-11 0.0012644788615424820 76.624585496999998 237.47047479999995 171.48180167999999 450.61312636181810 0.0000000000000000 0.0000000000000000 0.0000000000000000 0.0000000000000000 0.76730091607364248 0.19623632158756213 0.016727884674382774 0.12927220928650621 3773.1431370077526 0.12933639360427371 0.0000000000000000 
68.826490196635589 239.32348467856391 162.71290923412502 68.826490196635604 239.32348467856397 162.71290923412499 -28.243453575932151 -4.5035653537709271e-07 -2.0674936329132196e-07 -3.5993575712443188e-06 -29.820471477402279 -1.9123401040931322e-05 -2.8305543975376935e-07 -0.00027242207899047521 0.0012749541327643854 3.0031101838788361e-11 1.0850361571157162e-11 -5.1692136298038708e-12 0.0013023782903321577 66.617712469000011 237.30869291999991 155.87294816000005 715.16986369778181 0.0000000000000000 0.0000000000000000 0.0000000000000000 0.0000000000000000 0.76674751507252370 0.19594656597294782 0.016689975602206399 0.12919152483007121 3767.8505754858493 0.12918955743454433 0.0000000000000000 
89.922260289824635 238.93369494670108 153.49388650790229 89.922260289824635 238.93369494670108 153.49388650790229 -27.500562815625546 -1.6629456632078629e-06 -1.3271408415393518e-07 -1.9209362791551050e-06 -31.580163689501834 -2.3293333146102033e-05 -2.8274028318725783e-07 -0.00025842551226262778 0.0012463526771480779 4.3552132149226986e-11 -5.3847877245104074e-11 -4.4042493600756788e-11 0.0012936010835291199 87.231849972999981 236.92114653999997 147.00535059000001 1226.5804134212974 0.0000000000000000 0.0000000000000000 0.0000000000000000 0.0000000000000000 0.76708013465813518 0.19611962357533458 0.016712478308791360 0.12920868069185659 3765.7654648910179 0.12927675391363233 0.0000000000000000 
89.708947206619868 226.72338802856314 169.20589101832053 89.708947206619825 226.72338802856305 169.20589101832050 -23.060501750425320 -1.9127100769295132e-06 2.4845658931169517e-06 -2.6259735670778511e-06 0.0000000000000000 -2.3251168237647946e-05 -2.7286760828637563e-07 -0.00028227989751283816 0.0012232307317310833 7.9186816751010226e-11 -1.4590657821311540e-10 -5.3125150665973839e-11 0.0000000000000000 87.023406990868523 224.78111344523825 162.11842028882040 681.06850806740897 0.0000000000000000 0.0000000000000000 0.0000000000000000 0.0000000000000000 0.76675759921562070 0.19595018066743405 0.016690236841556187 0.12920332646929991 3780.0452617345140 0.12919066741139718 0.0000000000000000 
89.501986497112782 198.25047221650462 193.80435070713585 89.501986497112753 198.25047221650459 193.80435070713577 -12.237616838229737 2.2245849023938372e-06 -3.8227398756030505e-07 -1.0675806854035994e-06 0.0000000000000000 -2.3210258996764214e-05 -2.4984575897057937e-07 -0.00031962593654299987 0.00091445295200796915 -3.9998686533266219e-10 3.9600505302106603e-10 9.0974371462046437e-11 0.0000000000000000 86.821171352877627 196.47206744171046 185.77919734079927 1095.9217422697654 0.0000000000000000 0.0000000000000000 0.0000000000000000 0.0000000000000000 0.76684911513607856 0.19599901365948069 0.016696749705313024 0.12927595455176705 3800.8854552347457 0.12921598017130237 0.0000000000000000 
31.373694515885166 216.33023867365193 136.75444028283067 31.373694515885170 216.33023867365188 136.75444028283070 -17.571049594645494 2.1833424314432444e-07 1.6598051957458829e-06 2.0258611284348409e-07 -19.083876800172508 -1.1720229009526416e-05 -2.6446419920667097e-07 -0.00023301123753705072 0.00099490217958522276 -2.0980076644115216e-11 -1.0949485510368205e-10 -2.4553886983435566e-11 0.0010328094487459260 30.019992800000004 214.44777965000000 130.90400481000003 1639.8558849024062 0.0000000000000000 0.0000000000000000 0.0000000000000000 0.0000000000000000 0.76692956540374135 0.19604343132888172 0.016702842740193083 0.12927220928650621 3788.5866432569101 0.12923941889823917 0.0000000000000000 