# For a description of the Tecplot format see the Tecplot User's guide.
#
Variables=x,y,z,s_u,s_v,s_w,s_p,mono_f_vel_u,mono_f_vel_v,mono_f_vel_w,const,u_nu,v_nu,w_nu,p_nu,x_nu,y_nu,z_nu,const,u_ref,v_ref,w_ref,vol_ref,x_ref,y_ref,z_ref,const,I1,I2,I3,J,p1,p2,p3
Zone f=fepoint, n=246, e=987, et=brick, c=black
38.2059 186.432 154.183 38.205859320937400 186.43222518038192 154.18320596653672 -4.8329150619891204 -2.5440776717566326e-07 1.7069963045959208e-07 -1.2286103484531090e-07 -4.5026694002103715 -1.3731116333154382e-05 -9.9298152184124078e-07 -0.00016452754811496773 0.00071473500552051848 4.8238429115348285e-11 -1.0608227027064430e-10 -1.4651337752355420e-11 0.00071076222637355085 37.813509013000001 185.98771463999995 152.49007815000002 1568.1286420541724 0.0000000000000000 0.0000000000000000 0.0000000000000000 0.0000000000000000 0.75440885568810856 0.18970983990841597 0.015901908097667290 0.12609170299340805 3918.6789463824593 0.12610276782156735 0.0000000000000000 
38.147591448815135 202.06246358119674 167.89543081349998 38.147591448815128 202.06246358119677 167.89543081349996 -4.5505902100898918 -4.2883921274661155e-07 9.5591440208864422e-08 -1.5131824467717879e-06 -3.9507686936379418 -1.3719016788454885e-05 -1.0452066140920202e-06 -0.00017772811535293751 0.00063603584082673470 7.3601576506547133e-11 -8.4798309797566300e-11 3.5726854162168414e-10 0.00054509858047418406 37.755586870999998 201.59457435000007 166.06645798000000 1115.6658590402926 0.0000000000000000 0.0000000000000000 0.0000000000000000 0.0000000000000000 0.75438689443395990 0.18969873703551568 0.015900504782798745 0.12609419550804937 3919.6917721059563 0.12609720401229044 0.0000000000000000 
65.264713013343354 203.81667072792536 148.98695564397610 65.264713013343382 203.81667072792527 148.98695564397619 -5.9988298106427242 8.3502103305207845e-07 1.4724762452010422e-06 -7.5317353790347020e-07 0.0000000000000000 -1.9404117504476505e-05 -3.3374268254533805e-06 -0.00015903081199709337 0.00081772150976158157 -7.4918184277074005e-11 -1.7770459383257507e-10 6.9448330334414861e-11 0.0000000000000000 64.706898088665852 203.32599865957309 147.35284761981995 1170.9507322714735 0.0000000000000000 0.0000000000000000 0.0000000000000000 0.0000000000000000 0.75429054899118597 0.18965036901294621 0.015894434294494036 0.12607224526968849 3917.3472363864435 0.12607311383187939 0.0000000000000000 
58.489217964996882 219.28751970437517 155.65366948122718 58.489217964996890 219.28751970437503 155.65366948122715 -7.0689724623357382 6.7248604677464214e-07 1.7213248818128639e-06 -1.1541697634521718e-06 0.0000000000000000 -1.7943033093048566e-05 -1.1027604663871315e-06 -0.00016594314279355649 0.00086023330365299865 2.4041205323176854e-11 -2.6633776869523624e-10 4.6164488206385955e-11 0.0000000000000000 57.976517148132935 218.79386635806736 153.94597399654558 871.12382118538517 0.0000000000000000 0.0000000000000000 0.0000000000000000 0.0000000000000000 0.75419259139016759 0.18960088989701071 0.015888186287552456 0.12606629772061639 3916.1541382936548 0.12604834828819425 0.0000000000000000 
106.96712403183381 203.42437035090140 169.33412336817113 106.96712403183386 203.42437035090131 169.33412336817116 -5.5619970269543062 -1.4681617160408493e-09 3.2356957163288577e-07 -4.4010732384662184e-07 0.0000000000000000 -2.8009655129890287e-05 -1.0497571316103740e-06 -0.00017911312454982342 0.00095092566286912648 -1.3786326068023396e-10 7.7832777344533428e-11 -4.1490238485472042e-11 0.0000000000000000 106.16678147036436 202.95444406841523 167.49089761680582 1451.6544664497774 0.0000000000000000 0.0000000000000000 0.0000000000000000 0.0000000000000000 0.75438357182710947 0.18969705831940778 0.015900292692018262 0.12608451405805576 3917.9931846979407 0.12609636167203317 0.0000000000000000 
93.556430197305517 213.96960465120657 154.15329953391165 93.556430197305474 213.96960465120662 154.15329953391165 -6.9207568705830651 -4.9786507083679460e-07 9.0137933300930291e-07 -1.2192211428239824e-06 0.0000000000000000 -2.5224873425766514e-05 -1.0849917907451709e-06 -0.00016449875762009067 0.00091338328239952697 -5.7011769233749550e-11 -9.5933780705812534e-11 4.2135479992853545e-11 0.0000000000000000 92.835659459041835 213.48390549527133 152.46046799605259 1374.0431229362807 0.0000000000000000 0.0000000000000000 0.0000000000000000 0.0000000000000000 0.75417005058853281 0.18958971135611638 0.015886800735844881 0.12605857630622336 3915.9554281041769 0.12604284898371751 0.0000000000000000 
106.59785132180527 179.22223165942557 169.04200990182923 106.59785132180525 179.22223165942552 169.04200990182923 -5.4434161312742182 1.0885653404231958e-06 -3.6428866288684625e-07 -3.5719607542052410e-08 0.0000000000000000 -2.7932974247246722e-05 -9.6889086553808568e-07 -0.00017883191100981355 0.00091294914764812097 -4.3559221917310831e-11 -8.5385330178580081e-11 -1.2215314137313506e-10 0.0000000000000000 105.79969982540383 178.78850535694073 167.20167807608388 2450.7686744678872 0.0000000000000000 0.0000000000000000 0.0000000000000000 0.0000000000000000 0.75413430879594645 0.18957163866389407 0.015884516491751936 0.12605344989955419 3919.6036367857591 0.12603378991210826 0.0000000000000000 
76.342127208093601 193.70356352289036 158.75445762018327 76.342127208093629 193.70356352289036 158.75445762018319 -5.1954787266205047 2.1143527346446181e-07 1.0095359373316975e-06 -7.1023706395225135e-07 0.0000000000000000 -2.1382105625108438e-05 -7.3912939046925153e-06 -0.00016641920503175547 0.00082098933026466950 -4.4415755702812824e-11 -8.4967552525173159e-11 1.0177443310608042e-10 0.0000000000000000 75.717375094302042 193.21622810126507 157.03338180528999 1144.4826376458880 0.0000000000000000 0.0000000000000000 0.0000000000000000 0.0000000000000000 0.75448950517950353 0.18975062934208731 0.015907065255334692 0.12608978482396124 3917.1416455974340 0.12612319490981930 0.0000000000000000 
121.27219646483194 178.36747898920854 134.86906521355363 121.27219646483194 178.36747898920854 134.86906521355360 -6.6506789817257950 -1.7056574518405125e-07 -6.8642698034750177e-07 -8.4959149181159831e-07 -6.6638102978912466 -3.0980157963378385e-05 -9.6603488475288657e-07 -0.00014593409472357657 0.00085314708742436534 -1.0257147878733623e-11 2.2576019190471675e-11 5.4447145605796917e-11 0.00089171762800017854 120.38697531999998 177.93503117000000 133.36727978000002 3315.6872353797526 0.0000000000000000 0.0000000000000000 0.0000000000000000 0.0000000000000000 0.75432642079418477 0.18966836285946972 0.015896690887547020 0.12606506228934569 3915.8866514466354 0.12608207061694629 0.0000000000000000 
123.31285821596958 151.05450185976369 167.94955709715308 123.31285821596957 151.05450185976366 167.94955709715308 -6.5758466787471637 5.4968133799204854e-08 1.2923029686604475e-07 2.9360313460779608e-07 0.0000000000000000 -3.1403909159399834e-05 -8.7477440888217295e-07 -0.00017778022195397147 0.00074848241431371178 3.7085147143690127e-11 -5.8157028680364357e-11 1.1706906237898196e-11 0.0000000000000000 122.41552888508200 150.66290700972726 166.12004804243418 2788.4559803272532 0.0000000000000000 0.0000000000000000 0.0000000000000000 0.0000000000000000 0.75402582475154378 0.18951709713832163 0.015877661201481839 0.12604908460518810 3917.8493286111816 0.12600659048045110 0.0000000000000000 
103.97965821043152 159.43394726808546 152.66223711356173 103.97965821043157 159.43394726808543 152.66223711356176 -5.6610360370250303 7.4841392221825181e-07 -7.4143301276104069e-07 -5.1494139865488391e-07 0.0000000000000000 -3.4260562314730045e-05 -2.5188774674069246e-06 -0.00015885139551739596 0.00073218841317811893 -3.5458608272684455e-11 5.8760917390145294e-12 1.4159610637021193e-11 0.0000000000000000 103.16264437007636 159.03337825173907 151.00577047027593 2614.5647304445974 0.0000000000000000 0.0000000000000000 0.0000000000000000 0.0000000000000000 0.75392081792806964 0.18946436527614402 0.015871040967207792 0.12603482844515676 3920.5622740710451 0.12598036210102451 0.0000000000000000 
136.31960696183364 135.58663718725052 211.39085397385648 136.31960696183364 135.58663718725052 211.39085397385651 -4.8501727831322654 4.5084448080182032e-07 1.1582796362666530e-06 -1.0972522390130375e-06 -4.1526789993557882 -3.4104810129498734e-05 -8.2309184495921173e-07 -0.00021960055134456757 0.00067564986891010333 -7.8859524129842447e-11 -2.2451697386013817e-10 8.1453634215302878e-11 0.00065897460293768567 135.34510260000002 135.21817816000001 209.13097830999999 2383.2023779596761 0.0000000000000000 0.0000000000000000 0.0000000000000000 0.0000000000000000 0.75437873345061457 0.18969464249302687 0.015899991212583498 0.12609035591462062 3918.8708078424470 0.12609517080403246 0.0000000000000000 
117.22358982694571 101.47245580049068 192.48201574401432 117.22358982694571 101.47245580049069 192.48201574401432 -5.5843984455825622 -4.5066039231213909e-07 -4.7902897506943686e-07 -1.1281367342105119e-06 -6.1463068384362378 -3.0139449361643589e-05 -7.0910660129874792e-07 -0.00020139727703866181 0.00064503672609850032 6.3253506041894432e-11 9.0168661475782934e-11 1.1386039689578526e-10 0.00066479329296842947 116.36239092999996 101.15502254000000 190.40946719000002 2640.5657475930620 0.0000000000000000 0.0000000000000000 0.0000000000000000 0.0000000000000000 0.75448411209256350 0.18974768864888278 0.015906666746187289 0.12609035591462056 3915.3988718658925 0.12612164416600988 0.0000000000000000 
122.63294063673416 108.46210775585001 222.65841353746126 122.63294063673416 108.46210775584998 222.65841353746129 -4.0726310809602317 -5.6009060616501563e-07 -1.3140336090657373e-06 -1.4083067555959566e-07 -3.2872409469418598 -3.1262721682356934e-05 -7.3246102924713961e-07 -0.00023044767346330780 0.00054284833201010438 1.1112061727982506e-10 1.5033329895999903e-10 -6.5368635435195808e-11 0.00045519702310379379 121.73964556999999 108.13421982999998 220.28691180000004 1907.3938422647439 0.0000000000000000 0.0000000000000000 0.0000000000000000 0.0000000000000000 0.75434710984465325 0.18967869375623139 0.015897980435758765 0.12609035591462056 3920.7236240390803 0.12608719436768515 0.0000000000000000 
105.58731625516421 122.28770954297848 208.96097636182228 105.58731625516425 122.28770954297850 208.96097636182222 -3.8637122894756515 6.8038110723704373e-08 -6.5677892852749711e-08 -1.3357517743038328e-06 0.0000000000000000 -2.7723132787926815e-05 -7.7865633046902971e-07 -0.00021726134214222756 0.00058547329120413859 -4.7191038682277419e-11 -5.7705132412667084e-11 1.1719884317272545e-10 0.0000000000000000 104.79516072874441 121.93914218401807 206.72517314201556 2433.5838456336692 0.0000000000000000 0.0000000000000000 0.0000000000000000 0.0000000000000000 0.75435259213914019 0.18968149975182780 0.015898339279808157 0.12609035591462064 3921.0120487604345 0.12608861747966063 0.0000000000000000 
38.155182745474605 163.53918353232703 156.39238488068966 38.155182745474590 163.53918353232706 156.39238488068972 -2.8637938518384991 3.4192132883656402e-07 7.4512553775208125e-07 5.6706362192250549e-07 -3.1516291338741809 -1.3720593149690877e-05 -9.1648931760390795e-07 -0.00016665429377898946 0.00041506960765495598 -1.1464074791058079e-10 -1.6759402378734451e-10 1.0223253698160150e-10 0.00040341377888817274 37.763133124999982 163.12891490999996 154.67737105000003 1609.7391759139125 0.0000000000000000 0.0000000000000000 0.0000000000000000 0.0000000000000000 0.75423745869812686 0.18962351907905198 0.015891039636714836 0.12610321241925546 3922.6762312033325 0.12605968313722765 0.0000000000000000 
38.193037332172516 176.73222736652230 168.05874718503665 38.193037332172523 176.73222736652227 168.05874718503668 -3.2504411281101073 2.1200785552677207e-07 4.3008030178831374e-07 -5.4471488525250872e-07 -4.1721702423283542 -1.3728453796657547e-05 -9.6057104398417060e-07 -0.00017788533772694623 0.00041272248735448855 -4.0122138617750507e-11 -1.1588218655692543e-10 1.0588615729192392e-10 0.00057291279150592847 37.800763103000001 176.30222544999998 166.22815640000002 1278.4532315353756 0.0000000000000000 0.0000000000000000 0.0000000000000000 0.0000000000000000 0.75425743218134167 0.18963371584331057 0.015892340879164107 0.12609035591462031 3921.4121893308161 0.12606483563248297 0.0000000000000000 
29.660080231592971 164.05258095870107 177.09643312501200 29.660080231592982 164.05258095870110 177.09643312501200 -2.5131893637534048 2.9387556564697445e-07 3.1895854006878039e-07 -8.4226516252436116e-07 -2.6372545172011788 -1.1956552719570847e-05 -9.1820470576875479e-07 -0.00018658579167379896 0.00029057427208981291 -3.3527997012496728e-11 -2.3065105079867014e-11 7.0499953837545426e-11 0.00030731713718881644 29.318435967000010 163.64154443000001 175.17630729999999 1176.2421003033126 0.0000000000000000 0.0000000000000000 0.0000000000000000 0.0000000000000000 0.75436548015597094 0.18968803154017419 0.015899166895817413 0.12609035591462039 3922.3585151842999 0.12609189877760887 0.0000000000000000 
45.766867231402450 139.75758073429671 177.50364987439380 45.766867231402472 139.75758073429677 177.50364987439386 -2.2155865767421092 -1.1799694845797464e-06 2.7329021245089253e-07 -2.5266950428271959e-07 0.0000000000000000 -1.5301188457383930e-05 -8.3702816591757490e-07 -0.00018697781354831686 0.00019688210171557986 4.5534134361119296e-10 -9.0727806486101353e-11 -6.4079833179830500e-11 0.0000000000000000 45.329653981089926 139.38288308181924 175.57948981227980 1838.0408446142237 0.0000000000000000 0.0000000000000000 0.0000000000000000 0.0000000000000000 0.75437858846596451 0.18969443129574989 0.015899947224126135 0.12611020019914176 3924.1068397314966 0.12609499406738156 0.0000000000000000 
59.172247978523536 137.45578482633769 225.02022527277117 59.172247978523529 137.45578482633772 225.02022527277117 -1.7354121081213423 1.0773361186703148e-07 4.9754062864076030e-07 -4.9312641806550455e-07 -1.8846853433175250 -1.8084866878653738e-05 -8.2933720768618713e-07 -0.00023272135662771867 0.00026411662067770753 -5.1550844121781208e-11 -1.4003790814074380e-11 9.1122553688677179e-11 0.00017711779651098268 58.655494429999983 137.08453005000001 222.62532541000004 1283.0721019573000 0.0000000000000000 0.0000000000000000 0.0000000000000000 0.0000000000000000 0.75437661755221430 0.18969349990842610 0.015899837677106187 0.12609035591462059 3923.8289758552196 0.12609456201493999 0.0000000000000000 
37.729433278797494 150.65017565527981 221.01254909786746 37.729433278797494 150.65017565527981 221.01254909786752 -1.7848959228546639 2.9414984528068188e-07 1.8743388326793699e-07 -2.2206196676578597e-07 -2.0220154275202731 -1.3632184648559864e-05 -8.7342342855456522e-07 -0.00022886322277043675 0.00023802139737448953 -2.5796642420459147e-11 -3.1232093004690481e-11 5.2551641567992963e-11 0.00024691284436083918 37.339909825999996 150.25918557000000 218.65735269999999 1388.6032526015726 0.0000000000000000 0.0000000000000000 0.0000000000000000 0.0000000000000000 0.75436597876536582 0.18968822980785013 0.015899185185548840 0.12609035591462059 3923.6538281429775 0.12609196978669493 0.0000000000000000 
59.629653322098306 159.17482433859493 205.73880756220930 59.629653322098306 159.17482433859499 205.73880756220930 -2.0269953082157741 4.8690665635244792e-07 -1.1139898776640445e-07 -8.0919609547193392e-08 -2.0971678522213049 -1.8179848842003587e-05 -9.0190672391470498e-07 -0.00021415940526153780 0.00030908595035245695 -1.2728611086312448e-10 4.5629054734078286e-11 1.3711748082581130e-11 0.00031529664863048451 59.110185776999977 158.77108363999997 203.53492589999999 1913.3477276736232 0.0000000000000000 0.0000000000000000 0.0000000000000000 0.0000000000000000 0.75422417439087741 0.18961694597886544 0.015890226908841901 0.12609035591462045 3924.1568891568163 0.12605645378509253 0.0000000000000000 
45.771148600051554 132.07057833355412 200.02466900186766 45.771148600051532 132.07057833355418 200.02466900186758 -1.9134951277380148 -3.9422479821692178e-07 -9.6441884527374784e-08 3.0045794253011798e-07 0.0000000000000000 -1.5302077496892448e-05 -8.1134368634661048e-07 -0.00020865848391621292 0.00027003910275085114 4.0331439931293624e-11 1.7795130144469432e-11 -3.2600333690810687e-11 0.0000000000000000 45.333909946406948 131.70737839773392 197.87739647919071 1878.7089811415260 0.0000000000000000 0.0000000000000000 0.0000000000000000 0.0000000000000000 0.75437865522716652 0.18969461461468087 0.015899989196038741 0.12609348270275780 3923.9292210172239 0.12609515775493077 0.0000000000000000 
73.825055402748490 182.88260538067826 194.26519742554967 73.825055402748518 182.88260538067831 194.26519742554959 -2.6763280027449379 3.2025526373156457e-07 -4.6514262267118179e-07 1.2208395943253357e-07 -2.0400961408502405 -2.1127578209378939e-05 -9.8112122159932369e-07 -0.00020311392113731008 0.00050538747083667720 -3.1277652857760848e-10 1.5099903148147551e-10 -7.0653686982764023e-11 0.00048576481263754018 73.221359999000001 182.44340413000006 192.17498315000009 1916.8989385598338 0.0000000000000000 0.0000000000000000 0.0000000000000000 0.0000000000000000 0.75471135129126266 0.18986178613848714 0.015920988821784925 0.12612332422070044 3919.7733957271521 0.12617841035202335 0.0000000000000000 
82.901690301108900 141.96706266138781 211.76410584585878 82.901690301108871 141.96706266138787 211.76410584585878 -2.8406241836631017 2.7672264101968828e-07 3.1288027607095010e-07 -1.9952235251613194e-07 -2.0555691258772222 -2.3012376053510586e-05 -8.4441067074725318e-07 -0.00021995987569883857 0.00053551083863029075 -8.8841819614187185e-11 -1.9147421213184521e-10 1.2549511137654681e-10 0.00062034030873387564 82.244139041999972 141.58906020999996 209.50053243000002 2596.9063225776295 0.0000000000000000 0.0000000000000000 0.0000000000000000 0.0000000000000000 0.75441834461556168 0.18971458805921099 0.015902502004645769 0.12609773711916875 3922.5549166765363 0.12610511294021706 0.0000000000000000 
97.423546659631427 151.22080055779614 179.34514786654870 97.423546659631469 151.22080055779625 179.34514786654867 -4.1616060441223031 1.8144224749909127e-06 4.9757121519652505e-08 -4.6024785593811764e-07 0.0000000000000000 -3.4362110665943471e-05 -4.9806357880754774e-06 -0.00018952315166938680 0.00060059697653442820 -3.1080415238077773e-10 -1.2186367982701708e-10 -2.5396665935389125e-10 0.0000000000000000 96.634805924592328 150.82018211309926 177.41298922508184 2674.5721001240636 0.0000000000000000 0.0000000000000000 0.0000000000000000 0.0000000000000000 0.75419234125122492 0.18960059799420922 0.015888129045406870 0.12606091099026315 3921.5788570292357 0.12604809330631120 0.0000000000000000 
111.03767231757772 161.22199757319979 196.78126889336593 111.03767231757773 161.22199757319967 196.78126889336605 -5.4115056347940902 1.4809091856815003e-06 2.0784993145114916e-07 -6.2709531412455868e-08 0.0000000000000000 -2.8854919999876660e-05 -9.0874691557885079e-07 -0.00020553610797507951 0.00083274896175375304 -3.3899958655204389e-11 -9.3887004042274875e-11 -2.3177827298418977e-11 0.0000000000000000 110.21317731831955 160.81519484644704 194.66612826377516 2907.4611518241991 0.0000000000000000 0.0000000000000000 0.0000000000000000 0.0000000000000000 0.75419491814511275 0.18960212511357857 0.015888350070430365 0.12605316732595165 3918.5988026165619 0.12604899086638308 0.0000000000000000 
69.413202700352741 138.14453201652566 192.89208478481228 69.413202700352727 138.14453201652574 192.89208478481220 -1.8459504899570651 3.4744885828289804e-07 4.0419388044414259e-07 1.1829314264600653e-06 0.0000000000000000 -2.0211440183381949e-05 -8.3163851313794446e-07 -0.00020179204477227544 0.00029181020387776757 -3.1205719595471787e-10 -6.0511041309408333e-12 -4.3554354946439799e-10 0.0000000000000000 68.835684850694804 137.77224705707783 190.81547373645992 2302.4579037184249 0.0000000000000000 0.0000000000000000 0.0000000000000000 0.0000000000000000 0.75456404111659348 0.18978775895691236 0.015911688574224109 0.12612870024094144 3923.8076524008347 0.12614156002186447 0.0000000000000000 
84.555826092145523 175.35193079951640 176.41067382098811 84.555826092145523 175.35193079951651 176.41067382098808 -3.5840015675762058 7.8959982227112997e-07 5.4118494682444663e-07 -3.8175912231099502e-07 0.0000000000000000 -3.0477000575986954e-05 -5.6777583579520156e-06 -0.00018492041917104234 0.00068156162457124370 -3.2914423705505967e-10 -2.1245235676948401e-10 -7.3097726030706218e-12 0.0000000000000000 83.849638243891135 174.91172786385235 174.51222656391082 1667.9065348682720 0.0000000000000000 0.0000000000000000 0.0000000000000000 0.0000000000000000 0.75461557738481611 0.18981353650653904 0.015914911988113897 0.12609773383356399 3919.3766204512062 0.12615425226886545 0.0000000000000000 
102.10451205499329 227.20912365465648 183.39823364610751 102.10451205499329 227.20912365465645 183.39823364610749 -5.8206271754332768 -8.4782201158058515e-07 6.6105380900321847e-07 1.8396360122608072e-07 -6.1765787665280802 -2.6999915211989300e-05 -1.1292288081832247e-06 -0.00019265244695793052 0.00089515672937398290 1.9356241534940852e-10 -1.7835215121606655e-10 1.2134379167428508e-10 0.00081647679007375567 101.33302161000000 226.70362169000003 181.41567680000000 527.87335979314730 0.0000000000000000 0.0000000000000000 0.0000000000000000 0.0000000000000000 0.75435478447916904 0.18968259390099271 0.015898475850804509 0.12609035591462042 3916.8613764910228 0.12608915902994602 0.0000000000000000 
110.06654250882076 213.32651472398013 194.14655771923671 110.06654250882072 213.32651472398007 194.14655771923665 -5.2097529942774186 2.4713039873899604e-07 5.4160964857960836e-08 -5.9745616949201156e-08 -4.9245105310157680 -2.8653261202993271e-05 -1.0828430230258590e-06 -0.00020299970832676764 0.00090819761273294795 -3.0445789582446119e-10 2.3468383324748302e-10 8.8402388848845628e-12 0.00098210170400316868 109.24780967000000 212.84177746000000 192.05751878999999 1255.4436111582911 0.0000000000000000 0.0000000000000000 0.0000000000000000 0.0000000000000000 0.75434468314689618 0.18967755516146648 0.015897847549174532 0.12609035591462037 3918.3629292544083 0.12608666713995734 0.0000000000000000 
92.393159471833357 213.50106178396615 179.91351374437428 92.393159471833329 213.50106178396615 179.91351374437423 -5.5671293421344457 6.3754104758756057e-08 1.1245353600275444e-06 -1.2275537903060258e-06 0.0000000000000000 -2.4983315816740070e-05 -1.0834262540448949e-06 -0.00018929775583037542 0.00084260990208178375 4.7779154506262593e-11 -3.7475851930621656e-10 2.0969927566160153e-10 0.0000000000000000 91.679290954562077 213.01606344388193 177.96547951144200 663.90724330950775 0.0000000000000000 0.0000000000000000 0.0000000000000000 0.0000000000000000 0.75435179504574290 0.18968094153937304 0.015898249316011068 0.12608790458007446 3917.6730745730993 0.12608825631011469 0.0000000000000000 
64.560471561374456 212.14758905420496 168.49602478612869 64.560471561374456 212.14758905420507 168.49602478612866 -5.4797199517180202 1.1205627105608732e-06 1.5792766466042791e-06 -9.8918522975002002e-07 0.0000000000000000 -2.0202693670770856e-05 -2.6473056262176378e-06 -0.00017682626812106617 0.00073766389151490091 -1.4583930658383215e-10 -3.4322418880124229e-10 3.1001315357382956e-11 0.0000000000000000 64.005185165032174 211.65254642520509 166.67194214610197 754.86350931875324 0.0000000000000000 0.0000000000000000 0.0000000000000000 0.0000000000000000 0.75442754014041591 0.18971893931908954 0.015903014776523543 0.12609158724861713 3917.0666944881677 0.12610714009968493 0.0000000000000000 
61.427428496323913 184.90017570105169 164.59702819658111 61.427428496323941 184.90017570105184 164.59702819658108 -3.9291343998556569 -2.0519691962493046e-07 7.0693741246631746e-08 -3.5125089475526554e-07 0.0000000000000000 -1.8553163714518650e-05 -9.8786250196658543e-07 -0.00017455278922756667 0.00061727087409741571 -7.4799157555891558e-11 3.7138731948526979e-11 1.1634604544314419e-10 0.0000000000000000 60.897293923099205 184.45795670032331 162.80073215801758 1456.3555990979894 0.0000000000000000 0.0000000000000000 0.0000000000000000 0.0000000000000000 0.75459490691113829 0.18980336837028014 0.015913662215023831 0.12612690358909220 3918.2295663133837 0.12614936719254857 0.0000000000000000 
88.979182637355876 196.50282009752993 140.47916162997589 88.979182637355876 196.50282009752999 140.47916162997583 -6.3884421544614529 1.4444247795166407e-07 1.0915505488373112e-06 -5.0074625823745988e-07 0.0000000000000000 -2.4274390519385406e-05 -1.0266302408745711e-06 -0.00015133485615986816 0.00089796583315410660 -1.6526987492730284e-11 -6.7781610054332450e-11 4.4856249078685705e-11 0.0000000000000000 88.285570817050015 196.04324661832075 138.92179778727578 2284.4992455537940 0.0000000000000000 0.0000000000000000 0.0000000000000000 0.0000000000000000 0.75429365513726510 0.18965188714039627 0.015894619614489961 0.12606077691387166 3916.3749390717426 0.12607386518446340 0.0000000000000000 
82.489266831964343 174.91949084528062 155.49157459346878 82.489266831964358 174.91949084528056 155.49157459346873 -4.2877565684920018 4.2747706798219057e-07 4.8242664350135500e-07 -3.1274621550045764e-07 0.0000000000000000 -2.5172423926471430e-05 -7.7111650210177648e-06 -0.00016391319455901464 0.00074596112573146285 8.6349559340434290e-12 -1.5726685001391147e-10 1.1043704354673937e-10 0.0000000000000000 81.814121362732124 174.46733636348887 153.79871785113039 1849.3455604645501 0.0000000000000000 0.0000000000000000 0.0000000000000000 0.0000000000000000 0.75427056086423194 0.18963995735660882 0.015893079855941909 0.12608469271213615 3921.2551695069369 0.12606774233278217 0.0000000000000000 
77.248594334038359 237.99210524499037 173.36496034698430 77.248594334038344 237.99210524499037 173.36496034698436 -7.5008468653698994 2.7858695224032645e-07 -7.8025597064146249e-08 -9.1090967136332469e-07 -7.2616096256269307 -2.1838489126901894e-05 -1.1652578382204124e-06 -0.00018299355499279413 0.00098194216228412296 -4.7440365561049581e-11 1.3411756755371879e-11 -5.1490975188895329e-11 0.00099685609083911201 76.624585496999998 237.47047479999995 171.48180167999999 450.61312636181810 0.0000000000000000 0.0000000000000000 0.0000000000000000 0.0000000000000000 0.75442665008992538 0.18971897813678271 0.015903080813847083 0.12609035591462039 3913.2627394914457 0.12610742305081762 0.0000000000000000 
67.181991515046278 237.83008101972538 157.59992491415105 67.181991515046292 237.83008101972533 157.59992491415102 -8.5488510349029792 -6.8830422329003185e-08 -4.9897332115232658e-08 -9.2397062035887813e-07 -8.9748615684258510 -1.9748120669570186e-05 -1.1647164590566918e-06 -0.00016781677568927789 0.00094537381462144192 2.8714411731508580e-11 6.9851877215277025e-12 -2.0760158269639314e-11 0.00095317264319810574 66.617712469000011 237.30869291999991 155.87294816000005 715.16986369778181 0.0000000000000000 0.0000000000000000 0.0000000000000000 0.0000000000000000 0.75427883264902584 0.18964417405214609 0.015893617365602294 0.12606950363318203 3911.9653070081908 0.12606988101148286 0.0000000000000000 
87.919172263539409 237.44195410480918 148.64359831937389 87.919172263539409 237.44195410480918 148.64359831937392 -8.3727158475240486 -4.2763787020576478e-07 -3.7879756795006570e-08 -4.9844061283821142e-07 -9.4487324604559007 -2.4054275323204255e-05 -1.1634196245282750e-06 -0.00015919464525809834 0.00093232968638471650 1.2066524988997156e-11 -2.9376833032091752e-11 -3.5876913840984652e-11 0.00093915603864341173 87.231849972999981 236.92114653999997 147.00535059000001 1226.5804134212974 0.0000000000000000 0.0000000000000000 0.0000000000000000 0.0000000000000000 0.75436341379850258 0.18968691175228672 0.015899015935010030 0.12607343645601901 3911.4118559720732 0.12609129997606477 0.0000000000000000 
87.709485110954063 225.28373553997343 163.90788912686324 87.709485110954105 225.28373553997338 163.90788912686324 -7.2010066818163336 -5.0163981568683721e-07 6.7242032251983813e-07 -6.4119622074769657e-07 0.0000000000000000 -2.4010732984913741e-05 -1.1227955314940807e-06 -0.00017388936467915839 0.00095138909863028923 3.3175057200537879e-11 -1.1051189403892047e-10 -7.4253297735537439e-11 0.0000000000000000 87.023406990868523 224.78111344523825 162.11842028882040 681.06850806740897 0.0000000000000000 0.0000000000000000 0.0000000000000000 0.0000000000000000 0.75427253188519394 0.18964090184225260 0.015893192889072535 0.12607184861271081 3915.2119943050252 0.12606820484303696 0.0000000000000000 
87.506042353381048 196.93228328393403 187.80541549642419 87.506042353381019 196.93228328393400 187.80541549642425 -4.0905894507258784 6.6358314044550865e-07 -1.5700211144792463e-07 -3.3179718617379878e-07 0.0000000000000000 -2.3968487322056919e-05 -1.0280652103511478e-06 -0.00019689517934334821 0.00074573307069467803 -3.9699661040609338e-10 3.8878525743738251e-10 7.5621109397841014e-11 0.0000000000000000 86.821171352877627 196.47206744171046 185.77919734079927 1095.9217422697654 0.0000000000000000 0.0000000000000000 0.0000000000000000 0.0000000000000000 0.75432272139806122 0.18966626943215112 0.015896398397861392 0.12609272515780690 3920.9996899680255 0.12608092245377775 0.0000000000000000 
30.365824570808641 214.93492266563968 132.38114275767927 30.365824570808634 214.93492266563970 132.38114275767927 -5.5676332431789728 6.1563208389220672e-08 4.6861980771265208e-07 6.1106008205774168e-08 -6.0294023889609312 -1.2103103223888463e-05 -1.0882171798121121e-06 -0.00014353900655489363 0.00075542199084362106 -1.4663104666261671e-11 -7.2531962795442935e-11 -1.5130673323106852e-11 0.00078337722329181465 30.019992800000004 214.44777965000000 130.90400481000003 1639.8558849024062 0.0000000000000000 0.0000000000000000 0.0000000000000000 0.0000000000000000 0.75432785928770163 0.18966908168310698 0.015896780608875196 0.12609035591462042 3917.7233114419173 0.12608243487751911 0.0000000000000000 