# For a description of the Tecplot format see the Tecplot User's guide.
#
Variables=x,y,z,s_u,s_v,s_w,s_p,mono_f_vel_u,mono_f_vel_v,mono_f_vel_w,const,u_nu,v_nu,w_nu,p_nu,x_nu,y_nu,z_nu,const,u_ref,v_ref,w_ref,vol_ref,x_ref,y_ref,z_ref,const,I1,I2,I3,J,p1,p2,p3
Zone f=fepoint, n=246, e=987, et=brick, c=black
38.2059 186.432 154.183 38.205859320937400 186.43222518038192 154.18320596653672 -4.8366162662964625 -2.5401078366311474e-07 1.6960957295342924e-07 -1.2228272392785443e-07 -4.5037848654919781 -1.3731116333154381e-05 -9.9298152184124078e-07 -0.00016452754811496773 0.00073403923808351582 4.5800479818895680e-11 -8.9928954537961561e-11 -1.4328803730654953e-11 0.00073120301896035036 37.813509013000001 185.98771463999995 152.49007815000002 1568.1286420541724 0.0000000000000000 0.0000000000000000 0.0000000000000000 0.0000000000000000 0.75440550393328087 0.18970814797666527 0.015901694586541785 0.12609176200554936 3918.7046807063016 0.12610191844746324 0.0000000000000000 
38.147591448815135 202.06246358119674 167.89543081349998 38.147591448815128 202.06246358119677 167.89543081349996 -4.5515663873616949 -4.2939845740963824e-07 9.5938183767990927e-08 -1.5144973084070191e-06 -3.9521150310270476 -1.3719016788454885e-05 -1.0452066140920200e-06 -0.00017772811535293756 0.00064339990029170773 7.4818190656155795e-11 -8.8179247848943681e-11 3.6254675112755957e-10 0.00054998790865162990 37.755586870999998 201.59457435000007 166.06645798000000 1115.6658590402926 0.0000000000000000 0.0000000000000000 0.0000000000000000 0.0000000000000000 0.75439184344183952 0.18970123423393603 0.015900819792030403 0.12609431262192580 3919.6468975865137 0.12609845281905657 0.0000000000000000 
65.264775225732691 203.81653912474619 148.98697844364864 65.264775225732663 203.81653912474613 148.98697844364867 -6.0030261565016012 8.3528814326204494e-07 1.4747749551250008e-06 -7.5334783111059701e-07 0.0000000000000000 -1.9551371165794680e-05 -3.1589109592310841e-06 -0.00015907328440065407 0.00083701762289944070 -8.2354744875010862e-11 -1.8370214201923643e-10 6.9148165406593078e-11 0.0000000000000000 64.706898088665852 203.32599865957309 147.35284761981995 1170.9507322714735 0.0000000000000000 0.0000000000000000 0.0000000000000000 0.0000000000000000 0.75428611363189690 0.18964813404213077 0.015894152747478574 0.12607265984657315 3917.3810639802555 0.12607199625307816 0.0000000000000000 
58.489217964996882 219.28751970437517 155.65366948122718 58.489217964996890 219.28751970437503 155.65366948122715 -7.0715328224845555 6.7415447515307587e-07 1.7210727316053463e-06 -1.1546542408102924e-06 0.0000000000000000 -1.7943033093048566e-05 -1.1027604663871315e-06 -0.00016594314279355651 0.00087214325807591082 1.5996293227157443e-11 -2.6576285750346411e-10 4.8487918654813665e-11 0.0000000000000000 57.976517148132935 218.79386635806736 153.94597399654558 871.12382118538517 0.0000000000000000 0.0000000000000000 0.0000000000000000 0.0000000000000000 0.75419365567105123 0.18960142743198252 0.015888254158651086 0.12606652072261187 3916.1403481369480 0.12604861766420858 0.0000000000000000 
106.96712403183381 203.42437035090140 169.33412336817113 106.96712403183386 203.42437035090131 169.33412336817116 -5.5647010157488728 -3.9223932970785916e-09 3.2348611929099848e-07 -4.4054625133524242e-07 0.0000000000000000 -2.8009655129890284e-05 -1.0497571316103738e-06 -0.00017911312454982342 0.00097696798512624515 -1.3574966721151886e-10 7.2694534755195559e-11 -3.1219718711877550e-11 0.0000000000000000 106.16678147036436 202.95444406841523 167.49089761680582 1451.6544664497774 0.0000000000000000 0.0000000000000000 0.0000000000000000 0.0000000000000000 0.75437843386962666 0.18969447313812215 0.015899967512181142 0.12608470222504514 3918.0362587544228 0.12609507237389839 0.0000000000000000 
93.556430197305517 213.96960465120657 154.15329953391165 93.556430197305474 213.96960465120662 154.15329953391165 -6.9248966010282551 -5.0055388929583752e-07 9.0031869251898982e-07 -1.2191397732254294e-06 0.0000000000000000 -2.5224873425766511e-05 -1.0849917907451712e-06 -0.00016449875762009070 0.00094283624513075181 -5.8006408758587839e-11 -9.2116929867581218e-11 4.9156228449852924e-11 0.0000000000000000 92.835659459041835 213.48390549527133 152.46046799605259 1374.0431229362807 0.0000000000000000 0.0000000000000000 0.0000000000000000 0.0000000000000000 0.75417326912516458 0.18959132887935271 0.015887003963927889 0.12605951735654200 3915.9188975035458 0.12604365518297064 0.0000000000000000 
106.59785132180527 179.22223165942557 169.04200990182923 106.59785132180525 179.22223165942552 169.04200990182923 -5.4476127556913303 1.0845836321118311e-06 -3.6786935828307245e-07 -3.3295191015943760e-08 0.0000000000000000 -2.7932974247246722e-05 -9.6889086553808568e-07 -0.00017883191100981355 0.00097120834916226723 -4.2543932967888194e-11 -5.0701283095630739e-11 -9.6625733515277318e-11 0.0000000000000000 105.79969982540383 178.78850535694073 167.20167807608388 2450.7686744678872 0.0000000000000000 0.0000000000000000 0.0000000000000000 0.0000000000000000 0.75414255171805444 0.18957579172557387 0.015885039584995944 0.12605649034537666 3919.5208839326665 0.12603586743619835 0.0000000000000000 
76.342210791431640 193.70214328217335 158.75432032534727 76.342210791431640 193.70214328217341 158.75432032534721 -5.2008771397464431 2.1229348046231201e-07 1.0119527886270865e-06 -7.1155161890263710e-07 0.0000000000000000 -2.1719247343840467e-05 -5.8346523179179024e-06 -0.00016629594310786690 0.00085196624080857047 -5.3608887190546599e-11 -8.6602624430916011e-11 9.4537814079475250e-11 0.0000000000000000 75.717375094302042 193.21622810126507 157.03338180528999 1144.4826376458880 0.0000000000000000 0.0000000000000000 0.0000000000000000 0.0000000000000000 0.75449054691395301 0.18975115895556496 0.015907132568999952 0.12609200211724123 3917.1230894400928 0.12612345942936051 0.0000000000000000 
121.27219646483194 178.36747898920854 134.86906521355363 121.27219646483194 178.36747898920854 134.86906521355360 -6.6502468613027865 -1.7115723448309037e-07 -6.8571331185734839e-07 -8.4913127234502795e-07 -6.6629166313844754 -3.0980157963378385e-05 -9.6603488475288636e-07 -0.00014593409472357655 0.00094440911580998118 -1.6459622698359658e-11 3.2899831629984241e-11 3.7057795369660540e-11 0.00099776196419086756 120.38697531999998 177.93503117000000 133.36727978000002 3315.6872353797526 0.0000000000000000 0.0000000000000000 0.0000000000000000 0.0000000000000000 0.75431670537974527 0.18966347662795124 0.015896076520531797 0.12606580703037495 3915.9740543973526 0.12607963553631224 0.0000000000000000 
123.31285821596958 151.05450185976369 167.94955709715308 123.31285821596957 151.05450185976366 167.94955709715308 -6.5675014888937113 4.2082078836882479e-08 1.3649111258122523e-07 3.0127501796290794e-07 0.0000000000000000 -3.1403909159399834e-05 -8.7477440888217274e-07 -0.00017778022195397150 0.00088039641448971716 1.6357258971138253e-11 -1.7116480763622825e-11 2.7277640783798408e-11 0.0000000000000000 122.41552888508200 150.66290700972726 166.12004804243418 2788.4559803272532 0.0000000000000000 0.0000000000000000 0.0000000000000000 0.0000000000000000 0.75406145565825933 0.18953502269867734 0.015879915715162066 0.12605099638153586 3917.5390869440439 0.12601553074275335 0.0000000000000000 
103.97868529416182 159.43361376471472 152.66251350351587 103.97868529416179 159.43361376471469 152.66251350351590 -5.6558940350903129 7.4362388455259179e-07 -7.3017302591058688e-07 -5.0980371751210787e-07 0.0000000000000000 -3.3765207479919841e-05 -1.2399456787262281e-06 -0.00015877325814298409 0.00088547843903761386 -2.5335016824866748e-11 1.1963757106890890e-11 2.6164340504772546e-11 0.0000000000000000 103.16264437007636 159.03337825173907 151.00577047027593 2614.5647304445974 0.0000000000000000 0.0000000000000000 0.0000000000000000 0.0000000000000000 0.75395216106614582 0.18948010849478003 0.015873017873673130 0.12603792911270623 3920.2848629111841 0.12598819977896311 0.0000000000000000 
136.31960696183364 135.58663718725052 211.39085397385648 136.31960696183364 135.58663718725052 211.39085397385651 -4.8460940500918728 4.5060037647689412e-07 1.1613948532754270e-06 -1.0924214123064862e-06 -4.1556394268546049 -3.4104810129498225e-05 -8.2309184495921194e-07 -0.00021960055134456752 0.00070267897673724521 -8.4620540027678060e-11 -2.3688054977077071e-10 1.0742952585978062e-10 0.00066454548895701637 135.34510260000002 135.21817816000001 209.13097830999999 2383.2023779596761 0.0000000000000000 0.0000000000000000 0.0000000000000000 0.0000000000000000 0.75437777795265404 0.18969416402211658 0.015899931312193246 0.12609035591462062 3918.8856108408290 0.12609493209631423 0.0000000000000000 
117.22358982694571 101.47245580049068 192.48201574401432 117.22358982694571 101.47245580049069 192.48201574401432 -5.5618824061533561 -4.4565215633330922e-07 -4.7474055989506066e-07 -1.1142661441818375e-06 -6.1127081726730799 -3.0139449361643589e-05 -7.0910660129874802e-07 -0.00020139727703866181 0.00072587107106106676 6.7021120503197521e-11 9.1502570455385369e-11 1.4057592650340000e-10 0.00072563105829461221 116.36239092999996 101.15502254000000 190.40946719000002 2640.5657475930620 0.0000000000000000 0.0000000000000000 0.0000000000000000 0.0000000000000000 0.75444404310017898 0.18972749881455367 0.015904123501870492 0.12609035591462056 3915.8031566812083 0.12611155736020324 0.0000000000000000 
122.63294063673416 108.46210775585001 222.65841353746126 122.63294063673416 108.46210775584998 222.65841353746129 -4.0669277549879572 -5.5946873122003689e-07 -1.3103703088617212e-06 -1.3696599428112684e-07 -3.2862991300600859 -3.1262721682356826e-05 -7.3246102924403629e-07 -0.00023044767346330734 0.00055679311203383119 1.1670082428637335e-10 1.6557084056172620e-10 -5.8968505008184862e-11 0.00045620273638481007 121.73964556999999 108.13421982999998 220.28691180000004 1907.3938422647439 0.0000000000000000 0.0000000000000000 0.0000000000000000 0.0000000000000000 0.75435119487430324 0.18968075604891552 0.015898240703636761 0.12609035591462056 3920.6951889144393 0.12608822589869823 0.0000000000000000 
105.58731625516421 122.28770954297848 208.96097636182228 105.58731625516425 122.28770954297850 208.96097636182222 -3.8590370249899668 6.6457332073329625e-08 -6.6837322568337953e-08 -1.3369391954710925e-06 0.0000000000000000 -2.7723132787926815e-05 -7.7865633046902961e-07 -0.00021726134214222759 0.00060648610101828938 -4.2703322943367503e-11 -4.7869942977952384e-11 1.3731308726013514e-10 0.0000000000000000 104.79516072874441 121.93914218401807 206.72517314201556 2433.5838456336692 0.0000000000000000 0.0000000000000000 0.0000000000000000 0.0000000000000000 0.75436020864082076 0.18968533726105238 0.015898822653134189 0.12609035591462064 3920.9467610655861 0.12609053321838934 0.0000000000000000 
38.155182745474605 163.53918353232703 156.39238488068966 38.155182745474590 163.53918353232706 156.39238488068972 -2.8829936475922699 3.3731374052860918e-07 7.3116906727450708e-07 5.6396233250880239e-07 -3.1948395311516289 -1.3720593149690874e-05 -9.1648931760390774e-07 -0.00016665429377898944 0.00051819031491443521 -1.0023882695443148e-10 -1.2548177940577403e-10 8.6589010567554809e-11 0.00052586887996869803 37.763133124999982 163.12891490999996 154.67737105000003 1609.7391759139125 0.0000000000000000 0.0000000000000000 0.0000000000000000 0.0000000000000000 0.75424209651077012 0.18962580633915541 0.015891321519131037 0.12610699269806983 3922.5996732887152 0.12606080448080312 0.0000000000000000 
38.193037332172516 176.73222736652230 168.05874718503665 38.193037332172523 176.73222736652227 168.05874718503668 -3.2542831338065694 2.1185333300006922e-07 4.2691525359163441e-07 -5.4949847754894604e-07 -4.1679257962719891 -1.3728453796657545e-05 -9.6057104398417060e-07 -0.00017788533772694626 0.00044843214672164332 -3.3922950394155382e-11 -7.7556126632611345e-11 1.3581847707158966e-10 0.00058651330590783345 37.800763103000001 176.30222544999998 166.22815640000002 1278.4532315353756 0.0000000000000000 0.0000000000000000 0.0000000000000000 0.0000000000000000 0.75423356828388843 0.18962169887727368 0.015890828052011717 0.12609035591462031 3921.6192027181819 0.12605884024397748 0.0000000000000000 
29.660080231592971 164.05258095870107 177.09643312501200 29.660080231592982 164.05258095870110 177.09643312501200 -2.5210622066727590 2.9181302809093120e-07 3.1440844165195367e-07 -8.4664230906689700e-07 -2.6342413174320112 -1.1956552719572026e-05 -9.1820470576875469e-07 -0.00018658579167379899 0.00034413486959162463 -2.7680350448189178e-11 -9.8774525182470779e-12 1.0675876825541045e-10 0.00033771542682714198 29.318435967000010 163.64154443000001 175.17630729999999 1176.2421003033126 0.0000000000000000 0.0000000000000000 0.0000000000000000 0.0000000000000000 0.75433239062127466 0.18967137390255309 0.015897070494659851 0.12609035591462039 3922.6487050941646 0.12608358778036785 0.0000000000000000 
45.766867231402450 139.75758073429671 177.50364987439380 45.766867231402472 139.75758073429677 177.50364987439386 -2.2270802914464647 -1.1586470149332424e-06 2.5695692861054285e-07 -2.8241585908244613e-07 0.0000000000000000 -1.5301188457383930e-05 -8.3702816591757490e-07 -0.00018697781354831686 0.00032264458049284381 3.5536539635107245e-10 1.3549006480952095e-11 7.0459530026512090e-11 0.0000000000000000 45.329653981089926 139.38288308181924 175.57948981227980 1838.0408446142237 0.0000000000000000 0.0000000000000000 0.0000000000000000 0.0000000000000000 0.75447523968029506 0.18974308989294739 0.015906071449510076 0.12611992396518679 3923.2043611085933 0.12611926447704438 0.0000000000000000 
59.172247978523536 137.45578482633769 225.02022527277117 59.172247978523529 137.45578482633772 225.02022527277117 -1.7358790339860146 1.0933308052780582e-07 4.9828000548729250e-07 -4.9366414867588761e-07 -1.8874867175929824 -1.8084866878653735e-05 -8.2933720768618723e-07 -0.00023272135662771867 0.00026333801805816852 -4.6720901301713338e-11 -2.3781396546415708e-11 9.5969470067814836e-11 0.00017600696631712144 58.655494429999983 137.08453005000001 222.62532541000004 1283.0721019573000 0.0000000000000000 0.0000000000000000 0.0000000000000000 0.0000000000000000 0.75438628852246226 0.18969837719968477 0.015900452605897258 0.12609035591462059 3923.7415743048164 0.12609699514746148 0.0000000000000000 
37.729433278797494 150.65017565527981 221.01254909786746 37.729433278797494 150.65017565527981 221.01254909786752 -1.7841135068381664 2.9409833345774799e-07 1.8884141133165760e-07 -2.2329086979880711e-07 -2.0241234395557552 -1.3632184648559864e-05 -8.7342342855456479e-07 -0.00022886322277043675 0.00023691928268479955 -2.3839529857760786e-11 -3.7634648141884486e-11 5.9216815132897338e-11 0.00025004194323876433 37.339909825999996 150.25918557000000 218.65735269999999 1388.6032526015726 0.0000000000000000 0.0000000000000000 0.0000000000000000 0.0000000000000000 0.75437524931208355 0.18969288695983383 0.015899770076619052 0.12609035591462059 3923.5715122140582 0.12609428833449401 0.0000000000000000 
59.629653322098306 159.17482433859493 205.73880756220930 59.629653322098306 159.17482433859499 205.73880756220930 -2.0270641523544821 4.8338763255794254e-07 -1.1217338395902495e-07 -7.9596619589908303e-08 -2.0862136914934544 -1.8179848842003845e-05 -9.0190672391573116e-07 -0.00021415940526153725 0.00032275603134930959 -1.3670625200297053e-10 4.6140424698409537e-11 1.4690626090887316e-11 0.00029175338660584755 59.110185776999977 158.77108363999997 203.53492589999999 1913.3477276736232 0.0000000000000000 0.0000000000000000 0.0000000000000000 0.0000000000000000 0.75419133770056657 0.18960041923116794 0.015888147417670063 0.12609035591462045 3924.4572806789170 0.12604821347438791 0.0000000000000000 
45.771148600051554 132.07057833355412 200.02466900186766 45.771148600051532 132.07057833355418 200.02466900186758 -1.9139436233475158 -3.9003012139960814e-07 -9.5893683404941729e-08 3.0638329489660032e-07 0.0000000000000000 -1.5302077496892648e-05 -8.1134368634661048e-07 -0.00020865848391621379 0.00028451459506327359 3.5047677944956392e-11 2.8485843936667904e-11 -4.3814129062592415e-11 0.0000000000000000 45.333909946406948 131.70737839773392 197.87739647919071 1878.7089811415260 0.0000000000000000 0.0000000000000000 0.0000000000000000 0.0000000000000000 0.75434624803275330 0.18967832117147407 0.015897941225313503 0.12609367754803594 3924.2163488913220 0.12608704345752561 0.0000000000000000 
73.825055402748490 182.88260538067826 194.26519742554967 73.825055402748518 182.88260538067831 194.26519742554959 -2.6768964043886210 3.2628405369938946e-07 -4.5998005036224226e-07 1.2115618730454190e-07 -2.0242413395501866 -2.1127578209378939e-05 -9.8112122159932369e-07 -0.00020311392113731006 0.00052896801353584345 -3.2388757318446853e-10 1.3813635291772715e-10 -6.8283683537269352e-11 0.00044906282947657777 73.221359999000001 182.44340413000006 192.17498315000009 1916.8989385598338 0.0000000000000000 0.0000000000000000 0.0000000000000000 0.0000000000000000 0.75466396680731440 0.18983792181239906 0.015917984127191771 0.12612383959733761 3920.2045616092896 0.12616650266265803 0.0000000000000000 
82.901690301108900 141.96706266138781 211.76410584585878 82.901690301108871 141.96706266138787 211.76410584585878 -2.8415882184664394 2.7167328740301278e-07 3.1210935663935122e-07 -1.9951384042767045e-07 -2.0629868693751496 -2.3012376053510583e-05 -8.4441067074725318e-07 -0.00021995987569883857 0.00057340237958370354 -7.0497901922115768e-11 -1.9427675615538571e-10 1.2890339460409155e-10 0.00067018277905765017 82.244139041999972 141.58906020999996 209.50053243000002 2596.9063225776295 0.0000000000000000 0.0000000000000000 0.0000000000000000 0.0000000000000000 0.75440128425400854 0.18970599219206541 0.015901419257517539 0.12609830727594129 3922.6996728752843 0.12610082823221799 0.0000000000000000 
97.420265629351576 151.21870721719355 179.34350133076916 97.420265629351562 151.21870721719361 179.34350133076904 -4.1559422804893096 1.8089425787048310e-06 5.2286296998490853e-08 -4.5987402320569008e-07 0.0000000000000000 -3.3807268683070316e-05 -1.9162290299206928e-06 -0.00018734374019946639 0.00077755575917880780 -2.4842482271118783e-10 -1.5673745708978671e-11 -9.8219133471993169e-11 0.0000000000000000 96.634805924592328 150.82018211309926 177.41298922508184 2674.5721001240636 0.0000000000000000 0.0000000000000000 0.0000000000000000 0.0000000000000000 0.75427208188197492 0.18964073674421303 0.015893180159082906 0.12607030866197214 3920.8636933622033 0.12606811684920369 0.0000000000000000 
111.03767231757772 161.22199757319979 196.78126889336593 111.03767231757773 161.22199757319967 196.78126889336605 -5.4117592183786609 1.4784629648157825e-06 2.0841046554181277e-07 -7.0285299495541124e-08 0.0000000000000000 -2.8854919999876657e-05 -9.0874691557885089e-07 -0.00020553610797507951 0.00088118732778460606 -5.4861178202820492e-11 -9.3532496645216703e-11 -1.3274544439423091e-11 0.0000000000000000 110.21317731831955 160.81519484644704 194.66612826377516 2907.4611518241991 0.0000000000000000 0.0000000000000000 0.0000000000000000 0.0000000000000000 0.75421736334853040 0.18961340891892822 0.015889768218246014 0.12605801069264638 3918.3951811991433 0.12605461817688027 0.0000000000000000 
69.413202700352741 138.14453201652566 192.89208478481228 69.413202700352727 138.14453201652574 192.89208478481220 -1.8509941749980980 3.5624284019321372e-07 3.7624693517927907e-07 1.1480924987620306e-06 0.0000000000000000 -2.0211440183381946e-05 -8.3163851313794446e-07 -0.00020179204477227541 0.00040877080642514533 -3.7726051517149607e-10 8.5616294054337020e-11 -3.2752340875351136e-10 0.0000000000000000 68.835684850694804 137.77224705707783 190.81547373645992 2302.4579037184249 0.0000000000000000 0.0000000000000000 0.0000000000000000 0.0000000000000000 0.75473492946245113 0.18987374657821654 0.015922505398924865 0.12614379811945484 3922.2569085117857 0.12618441621056856 0.0000000000000000 
84.553405961608377 175.35008627776185 176.40947062496716 84.553405961608391 175.35008627776185 176.40947062496710 -3.5884400047039224 7.9785506923181034e-07 5.4436432431813838e-07 -3.8803763730686090e-07 0.0000000000000000 -3.0367554810582888e-05 -2.9145421210926108e-06 -0.00018320448886684505 0.00074567909275806746 -3.3925598570409337e-10 -2.0753427806256004e-10 2.0519491605458938e-11 0.0000000000000000 83.849638243891135 174.91172786385235 174.51222656391082 1667.9065348682720 0.0000000000000000 0.0000000000000000 0.0000000000000000 0.0000000000000000 0.75461096608411182 0.18981125889725117 0.015914630874074461 0.12610417600462781 3919.4048515208669 0.12615315202708602 0.0000000000000000 
102.10451205499329 227.20912365465648 183.39823364610751 102.10451205499329 227.20912365465645 183.39823364610749 -5.8220751552624064 -8.4752414030139088e-07 6.6131231273377851e-07 1.8397271925128579e-07 -6.1783131871479702 -2.6999915211989297e-05 -1.1292288081832247e-06 -0.00019265244695793049 0.00091694571652748205 1.8690103573909374e-10 -1.6823110814958596e-10 1.1158538836349260e-10 0.00084432319376749891 101.33302161000000 226.70362169000003 181.41567680000000 527.87335979314730 0.0000000000000000 0.0000000000000000 0.0000000000000000 0.0000000000000000 0.75435825574057425 0.18968434072754300 0.015898695611053559 0.12609035591462042 3916.8281748103932 0.12609003003406202 0.0000000000000000 
110.06654250882076 213.32651472398013 194.14655771923671 110.06654250882072 213.32651472398007 194.14655771923665 -5.2114241072330971 2.4551469467610176e-07 5.3426342983856199e-08 -5.7862873894806998e-08 -4.9246292245734526 -2.8653261202993271e-05 -1.0828430230258590e-06 -0.00020299970832676761 0.00093073500923260939 -2.8584798773644940e-10 2.2017519682318810e-10 4.8536060990221220e-12 0.00099760089079442929 109.24780967000000 212.84177746000000 192.05751878999999 1255.4436111582911 0.0000000000000000 0.0000000000000000 0.0000000000000000 0.0000000000000000 0.75434135295320714 0.18967587858127669 0.015897636531168460 0.12609035591462037 3918.3917261955798 0.12608583110303556 0.0000000000000000 
92.393159471833357 213.50106178396615 179.91351374437428 92.393159471833329 213.50106178396615 179.91351374437423 -5.5694041839839761 6.2976444853383541e-08 1.1232994069016578e-06 -1.2288549900935211e-06 0.0000000000000000 -2.4983315816740074e-05 -1.0834262540448945e-06 -0.00018929775583037542 0.00086213124343867192 3.7702613979169873e-11 -3.6651231496573702e-10 2.0624352193834933e-10 0.0000000000000000 91.679290954562077 213.01606344388193 177.96547951144200 663.90724330950775 0.0000000000000000 0.0000000000000000 0.0000000000000000 0.0000000000000000 0.75434808478615156 0.18967907411647469 0.015898014343283581 0.12608814294794393 3917.7027158897972 0.12608732531054082 0.0000000000000000 
64.560575233375744 212.14750905748213 168.49598034742843 64.560575233375786 212.14750905748221 168.49598034742846 -5.4822993754690508 1.1235989191679826e-06 1.5794009585344400e-06 -9.9033302216938055e-07 0.0000000000000000 -2.0394324800245213e-05 -2.5235788676323308e-06 -0.00017675008463408044 0.00075105434469677494 -1.5694702692262349e-10 -3.4164984151538068e-10 3.4808036248068374e-11 0.0000000000000000 64.005185165032174 211.65254642520509 166.67194214610197 754.86350931875324 0.0000000000000000 0.0000000000000000 0.0000000000000000 0.0000000000000000 0.75443092112888377 0.18972064673004405 0.015903230335537585 0.12609222075588231 3917.0316733012542 0.12610799524421215 0.0000000000000000 
61.427428496323913 184.90017570105169 164.59702819658111 61.427428496323941 184.90017570105184 164.59702819658108 -3.9334479339069199 -2.0169480772272988e-07 6.7718386129640519e-08 -3.5905590497694128e-07 0.0000000000000000 -1.8553163714518650e-05 -9.8786250196658543e-07 -0.00017455278922756667 0.00065532491571158326 -7.3462611138335875e-11 5.1230643247965564e-11 1.2295347347980594e-10 0.0000000000000000 60.897293923099205 184.45795670032331 162.80073215801758 1456.3555990979894 0.0000000000000000 0.0000000000000000 0.0000000000000000 0.0000000000000000 0.75459417570870002 0.18980298206047505 0.015913611304804513 0.12612839524632877 3918.2315445783643 0.12614916663952916 0.0000000000000000 
88.979182637355876 196.50282009752993 140.47916162997589 88.979182637355876 196.50282009752999 140.47916162997583 -6.3922934501168491 1.4506725532541617e-07 1.0919865467995824e-06 -4.9786620018824431e-07 0.0000000000000000 -2.4274390519385406e-05 -1.0266302408745709e-06 -0.00015133485615986819 0.00094276839792218736 -3.4076803654321484e-11 -5.5215061295239175e-11 4.1884912832389692e-11 0.0000000000000000 88.285570817050015 196.04324661832075 138.92179778727578 2284.4992455537940 0.0000000000000000 0.0000000000000000 0.0000000000000000 0.0000000000000000 0.75428752887236106 0.18964880271797063 0.015894231388706711 0.12606190987380766 3916.4243740773827 0.12607232212204711 0.0000000000000000 
82.488817202572889 174.91642552298470 155.49110444203149 82.488817202572875 174.91642552298475 155.49110444203146 -4.2928891104404645 4.2904360745178751e-07 4.8281492970749275e-07 -3.0714690984128901e-07 0.0000000000000000 -2.5391158459989458e-05 -4.8361636575084232e-06 -0.00016341548681394864 0.00085211868322871375 -1.2597743406433299e-11 -9.9401317321432930e-11 1.0446030970413495e-10 0.0000000000000000 81.814121362732124 174.46733636348887 153.79871785113039 1849.3455604645501 0.0000000000000000 0.0000000000000000 0.0000000000000000 0.0000000000000000 0.75431772485195492 0.18966381008554209 0.015896095615623843 0.12609350551451981 3920.8241387401458 0.12607971333652659 0.0000000000000000 
77.248594334038359 237.99210524499037 173.36496034698430 77.248594334038344 237.99210524499037 173.36496034698436 -7.5029486108469818 2.7860891430814631e-07 -7.8053559502603537e-08 -9.1154790042554203e-07 -7.2632407187787074 -2.1838489126901891e-05 -1.1652578382204126e-06 -0.00018299355499279415 0.00099499805890157348 -4.9550249080425421e-11 1.3042918097911411e-11 -4.9506207136472775e-11 0.0010086290637784810 76.624585496999998 237.47047479999995 171.48180167999999 450.61312636181810 0.0000000000000000 0.0000000000000000 0.0000000000000000 0.0000000000000000 0.75442695515612013 0.18971913083476988 0.015903099920084318 0.12609035591462039 3913.2565666055552 0.12610749889224768 0.0000000000000000 
67.181991515046278 237.83008101972538 157.59992491415105 67.181991515046292 237.83008101972533 157.59992491415102 -8.5520483177445463 -6.8250518080027797e-08 -4.9899007016605771e-08 -9.2520273024669073e-07 -8.9783362507310454 -1.9748120669573280e-05 -1.1647164590566916e-06 -0.00016781677568927789 0.00096079673056365285 2.5840699853909840e-11 6.6510647827876697e-12 -1.7229123178939609e-11 0.00096934837725121939 66.617712469000011 237.30869291999991 155.87294816000005 715.16986369778181 0.0000000000000000 0.0000000000000000 0.0000000000000000 0.0000000000000000 0.75427966398786883 0.18964459180292922 0.015893669845542083 0.12606974732694207 3911.9521942760207 0.12607008908255124 0.0000000000000000 
87.919172263539409 237.44195410480918 148.64359831937389 87.919172263539409 237.44195410480918 148.64359831937392 -8.3759947413737450 -4.2783018883192461e-07 -3.7855515009766382e-08 -4.9843972767295918e-07 -9.4524216337164830 -2.4054275323204252e-05 -1.1634196245284050e-06 -0.00015919464525809834 0.00095264822290234313 8.9991370271615197e-12 -2.7992557857386481e-11 -3.4549725610493222e-11 0.00095830772407502936 87.231849972999981 236.92114653999997 147.00535059000001 1226.5804134212974 0.0000000000000000 0.0000000000000000 0.0000000000000000 0.0000000000000000 0.75436123019340506 0.18968581222037256 0.015898877521484327 0.12607355447942289 3911.4259344114175 0.12609075060933289 0.0000000000000000 
87.709485110954063 225.28373553997343 163.90788912686324 87.709485110954105 225.28373553997338 163.90788912686324 -7.2038385252813972 -5.0249339664433408e-07 6.7134689474336829e-07 -6.4262827111200852e-07 0.0000000000000000 -2.4010732984913744e-05 -1.1227955314940807e-06 -0.00017388936467915839 0.00096886303249378786 3.1317232212758815e-11 -1.0785412604239024e-10 -6.9920469840131129e-11 0.0000000000000000 87.023406990868523 224.78111344523825 162.11842028882040 681.06850806740897 0.0000000000000000 0.0000000000000000 0.0000000000000000 0.0000000000000000 0.75427299518088253 0.18964113792373846 0.015893222961338268 0.12607215622186888 3915.2031761923231 0.12606832423741152 0.0000000000000000 
87.506042353381048 196.93228328393403 187.80541549642419 87.506042353381019 196.93228328393400 187.80541549642425 -4.0950777639501128 6.6132440286286508e-07 -1.6210652262809965e-07 -3.3469650580275904e-07 0.0000000000000000 -2.3968487322056919e-05 -1.0280652103511478e-06 -0.00019689517934334821 0.00076859116236538470 -3.8539977185985945e-10 3.8261642455266632e-10 7.4594567464376020e-11 0.0000000000000000 86.821171352877627 196.47206744171046 185.77919734079927 1095.9217422697654 0.0000000000000000 0.0000000000000000 0.0000000000000000 0.0000000000000000 0.75434901722532510 0.18967950120579677 0.015898062911890196 0.12609484206522473 3920.7544092372564 0.12608752121739403 0.0000000000000000 
30.365824570808641 214.93492266563968 132.38114275767927 30.365824570808634 214.93492266563970 132.38114275767927 -5.5704371369035135 6.1276551896658979e-08 4.6808900176202438e-07 6.0634396804788297e-08 -6.0338712877223619 -1.2103103223886199e-05 -1.0882171798121123e-06 -0.00014353900655489360 0.00076500988154649854 -1.5011528610359160e-11 -7.2196844367770272e-11 -1.1741740721056806e-11 0.00078934931554480736 30.019992800000004 214.44777965000000 130.90400481000003 1639.8558849024062 0.0000000000000000 0.0000000000000000 0.0000000000000000 0.0000000000000000 0.75433375498917843 0.18967204052260264 0.015897151838236426 0.12609035591462042 3917.6650697148061 0.12608390828392249 0.0000000000000000 