# For a description of the Tecplot format see the Tecplot User's guide.
#
Variables=x,y,z,s_u,s_v,s_w,s_p,mono_f_vel_u,mono_f_vel_v,mono_f_vel_w,const,u_nu,v_nu,w_nu,p_nu,x_nu,y_nu,z_nu,const,u_ref,v_ref,w_ref,vol_ref,x_ref,y_ref,z_ref,const,I1,I2,I3,J,p1,p2,p3
Zone f=fepoint, n=246, e=987, et=brick, c=black
39.3493 187.705 159.196 39.349299908790258 187.70542966615434 159.19597522174314 -15.083121992804360 -8.8299650668975797e-07 3.2583820859676263e-07 -2.7641060876040695e-07 -13.722109804152980 -1.3296740927759565e-05 -2.4131952147676827e-07 -0.00026708257577490180 0.00094031886321772299 6.0029231993221896e-11 -9.8359849779448033e-11 -1.3956052209921418e-11 0.00091832402859128243 37.813509013000001 185.98771463999995 152.49007815000002 1568.1286420541724 0.0000000000000000 0.0000000000000000 0.0000000000000000 0.0000000000000000 0.76719962308026501 0.19618129147195876 0.016720436370576994 0.12927783225205564 3792.1044689965420 0.12930747707763940 0.0000000000000000 
39.290024462960901 203.40263128001527 173.31039045141424 39.290024462960901 203.40263128001521 173.31039045141418 -14.102248543886589 -1.4520439231027737e-06 6.7062607176549274e-08 -5.0821373390546430e-06 -11.926485569622402 -1.3285024142994930e-05 -2.5401153092019513e-07 -0.00028851145825403712 0.00083283047823262040 7.7260701292296429e-11 -8.6404888396844446e-11 4.2842556501438170e-10 0.00067854297787899671 37.755586870999998 201.59457435000007 166.06645798000000 1115.6658590402926 0.0000000000000000 0.0000000000000000 0.0000000000000000 0.0000000000000000 0.76720749056479509 0.19618527180717654 0.016720937332228743 0.12928534659288179 3794.8514880173188 0.12930945390825282 0.0000000000000000 
66.889704925873531 205.21805454573573 153.82800100152835 66.889704925873517 205.21805454573578 153.82800100152829 -19.109037774930947 3.1302856996002861e-06 5.6848479182663950e-06 -2.6163745574037996e-06 0.0000000000000000 -2.0768385660363946e-05 -5.5133129920825136e-06 -0.00025650593460582830 0.0010699072507771086 -1.3297878814899135e-10 -2.9917804208233574e-10 9.4342077008395558e-11 0.0000000000000000 64.706898088665852 203.32599865957309 147.35284761981995 1170.9507322714735 0.0000000000000000 0.0000000000000000 0.0000000000000000 0.0000000000000000 0.76674361792919254 0.19594879290414005 0.016690799595628417 0.12920724406791917 3787.6663752184681 0.12919264522563137 0.0000000000000000 
59.983400361614379 220.70148314919129 160.70956859248042 59.983400361614422 220.70148314919143 160.70956859248051 -23.012155954698382 2.5110119896629811e-06 6.5256198739119684e-06 -4.4314884319901382e-06 0.0000000000000000 -1.7375416296205870e-05 -2.6799856933656946e-07 -0.00026938055369485348 0.0011461180953608277 1.4216184056217576e-12 -3.9796056187209476e-10 7.5730678020655098e-11 0.0000000000000000 57.976517148132935 218.79386635806736 153.94597399654558 871.12382118538517 0.0000000000000000 0.0000000000000000 0.0000000000000000 0.0000000000000000 0.76644917111365973 0.19579537655999427 0.016670819235757483 0.12918231244335088 3782.6131188515969 0.12911552116529768 0.0000000000000000 
109.29959109113388 204.77037274339702 174.79128099478672 109.29959109113391 204.77037274339699 174.79128099478669 -17.219676611815906 -1.0939861500952735e-07 1.0816593605221479e-06 -1.4872599431095734e-06 0.0000000000000000 -2.7123586960220436e-05 -2.5511743229067463e-07 -0.00029075978587056461 0.0011783766809016444 -1.3638788938006413e-10 4.1733095350122034e-11 -7.3846287912940657e-12 0.0000000000000000 106.16678147036436 202.95444406841523 167.49089761680582 1451.6544664497774 0.0000000000000000 0.0000000000000000 0.0000000000000000 0.0000000000000000 0.76709390522218390 0.19612667753629659 0.016713378929228848 0.12925446777711000 3790.6329371759925 0.12928021057037486 0.0000000000000000 
95.656998235597598 215.36078503478365 159.16519160983339 95.656998235597655 215.36078503478356 159.16519160983341 -22.224122807156348 -2.0132889219476615e-06 3.4260347990366088e-06 -4.6338401640935904e-06 0.0000000000000000 -2.4426900092633371e-05 -2.6368033889667686e-07 -0.00026703583925802299 0.0011882065903804535 -8.8093577154043138e-12 -1.8142583848010033e-10 4.0035905136679970e-11 0.0000000000000000 92.835659459041835 213.48390549527133 152.46046799605259 1374.0431229362807 0.0000000000000000 0.0000000000000000 0.0000000000000000 0.0000000000000000 0.76642904078354190 0.19578723081626667 0.016670057846265501 0.12916966560313220 3781.7137191345696 0.12911254516737405 0.0000000000000000 
108.92393288151843 180.46454702375112 174.49059960980773 108.92393288151837 180.46454702375107 174.49059960980773 -17.041850629234727 4.0595365476560308e-06 -1.5431072722944636e-06 1.2447968653045101e-07 0.0000000000000000 -2.7049331814188449e-05 -2.3546489846815177e-07 -0.00029030328334411770 0.0011944208710957204 -1.2954123522711593e-10 9.4485297572315229e-12 -3.9819827198594564e-11 0.0000000000000000 105.79969982540383 178.78850535694073 167.20167807608388 2450.7686744678872 0.0000000000000000 0.0000000000000000 0.0000000000000000 0.0000000000000000 0.76641598231487118 0.19577961329628826 0.016668977238133945 0.12917911428762752 3793.8139301975643 0.12910844397206767 0.0000000000000000 
78.159336118584051 195.07665898747791 163.85335539020937 78.159336118584008 195.07665898747794 163.85335539020937 -16.145574030133758 7.1676514901206753e-07 3.7915215517217728e-06 -2.7622724365068664e-06 0.0000000000000000 -2.3859709847528190e-05 -6.9719995501955551e-06 -0.00026909398416136409 0.0010637500184890825 -5.2242786706029754e-11 -1.7052286896661581e-10 6.0884646049670911e-11 0.0000000000000000 75.717375094302042 193.21622810126507 157.03338180528999 1144.4826376458880 0.0000000000000000 0.0000000000000000 0.0000000000000000 0.0000000000000000 0.76754296337853833 0.19636089385116048 0.016743907449978293 0.12929972903390258 3786.6073855969730 0.12939799663004350 0.0000000000000000 
123.85202822677846 179.60613241417718 139.31533546893979 123.85202822677844 179.60613241417724 139.31533546893979 -21.563705835467776 -6.4740562332305032e-07 -2.9920084495282101e-06 -3.4884805713228950e-06 -21.522591893899687 -3.0000119762840782e-05 -2.3477082677914041e-07 -0.00023689925705228096 0.0012521295333831875 -4.2713198721485314e-11 8.4247269725910493e-11 3.6698580425183664e-11 0.0013648339344528987 120.38697531999998 177.93503117000000 133.36727978000002 3315.6872353797526 0.0000000000000000 0.0000000000000000 0.0000000000000000 0.0000000000000000 0.76686398637456721 0.19600996563421769 0.016698577214553558 0.12918920740233383 3782.4283631035219 0.12922286092441310 0.0000000000000000 
125.92797729922373 152.17614077353022 173.36610430170805 125.92797729922373 152.17614077353025 173.36610430170811 -21.475038274945643 1.3226723702862592e-07 3.7892578461304388e-07 1.2245163188038853e-06 0.0000000000000000 -3.0410465841734791e-05 -2.1259221649749804e-07 -0.00028859604452002863 0.0012026653151948382 1.5860872090037682e-11 8.6252591672905663e-12 3.0377376326518147e-11 0.0000000000000000 122.41552888508200 150.66290700972726 166.12004804243418 2788.4559803272532 0.0000000000000000 0.0000000000000000 0.0000000000000000 0.0000000000000000 0.76616628698713585 0.19565172786713780 0.016652604202615572 0.12914176514619896 3785.2697933758077 0.12904489707122108 0.0000000000000000 
106.34263987045613 160.57073930120362 157.57410082653411 106.34263987045614 160.57073930120356 157.57410082653408 -18.088565421143254 2.7911413118944112e-06 -3.0143366215005400e-06 -2.0695263963746409e-06 0.0000000000000000 -3.4616238064745673e-05 4.0428881811863758e-07 -0.00025940927694897270 0.0012052130162471348 -6.0551626323570821e-11 6.1181404929216170e-11 3.1177660215612242e-11 0.0000000000000000 103.16264437007636 159.03337825173907 151.00577047027593 2614.5647304445974 0.0000000000000000 0.0000000000000000 0.0000000000000000 0.0000000000000000 0.76581561841635404 0.19547285969701550 0.016629794477639959 0.12910683934128539 3794.9586857303593 0.12895685915132732 0.0000000000000000 
139.15964000836811 136.64200853101113 218.08156871950419 139.15964000836811 136.64200853101110 218.08156871950422 -15.368141080277653 1.7285274095773502e-06 4.4163338072800637e-06 -4.0575046255432343e-06 -12.874661250001768 -3.3025925479046260e-05 -2.0003204281859865e-07 -0.00035648425790513194 0.00090026549582178231 -1.1643442768394256e-10 -3.3751822348978212e-10 1.4446928624860164e-10 0.00082893560097400802 135.34510260000002 135.21817816000001 209.13097830999999 2383.2023779596761 0.0000000000000000 0.0000000000000000 0.0000000000000000 0.0000000000000000 0.76709759659021770 0.19612884702563130 0.016713695343598432 0.12927220928650601 3792.1081222101370 0.12928148160945716 0.0000000000000000 
119.73341268947533 102.38167485037596 198.61811933289522 119.73341268947532 102.38167485037594 198.61811933289525 -18.135690200251755 -1.7368926322013613e-06 -1.8705439822643552e-06 -4.1510817424045624e-06 -20.156919933018177 -2.9186006458514765e-05 -1.7233077298506316e-07 -0.00032693432876773615 0.00098791372936525069 8.9046351084428928e-11 1.3157122686005170e-10 1.7542677406829177e-10 0.00099873536929028601 116.36239092999996 101.15502254000000 190.40946719000002 2640.5657475930620 0.0000000000000000 0.0000000000000000 0.0000000000000000 0.0000000000000000 0.76730799252689508 0.19623655912091612 0.016727476768233333 0.12927220928650604 3780.9866029467253 0.12933478272511592 0.0000000000000000 
125.23630251913531 109.40127193779297 229.67961470261025 125.23630251913531 109.40127193779298 229.67961470261025 -12.665864614064745 -2.2404965334461361e-06 -5.0753588394223569e-06 -4.4151585929842227e-07 -9.6341881173348884 -3.0273744749509438e-05 -1.7800648333124999e-07 -0.00037409272135335722 0.00073058421755088589 1.7923670410316046e-10 2.7707840173914930e-10 -6.8163716615946769e-11 0.00059190480349525110 121.73964556999999 108.13421982999998 220.28691180000004 1907.3938422647439 0.0000000000000000 0.0000000000000000 0.0000000000000000 0.0000000000000000 0.76701968296920442 0.19608852294885698 0.016708480919874431 0.12927220928650615 3798.4877566395508 0.12926128607646506 0.0000000000000000 
107.89592354430346 123.28610549696624 215.58042087834056 107.89592354430350 123.28610549696624 215.58042087834056 -11.790865401582851 2.6857528203605070e-07 -2.9771041837302973e-07 -5.0453220907525109e-06 0.0000000000000000 -2.6846128568847053e-05 -1.8923310163287965e-07 -0.00035268694839118991 0.00076992219188995947 -4.9323424923617131e-11 -2.8463742064302671e-11 1.7364902115673962e-10 0.0000000000000000 104.79516072874441 121.93914218401807 206.72517314201556 2433.5838456336692 0.0000000000000000 0.0000000000000000 0.0000000000000000 0.0000000000000000 0.76707696563129391 0.19611854805892556 0.016712409340212956 0.12927220928650607 3799.4221112781715 0.12927647565311021 0.0000000000000000 
39.297747029059913 164.71430943568481 161.46995109794048 39.297747029059913 164.71430943568478 161.46995109794045 -8.8681799785000752 1.1425861483557164e-06 2.5231309735101095e-06 2.2369027657014766e-06 -10.221878575316111 -1.3286550636815164e-05 -2.2272997746153322e-07 -0.00027053498672668930 0.00073152365947616778 -1.0836690846354287e-10 -1.2104565476534542e-10 6.5830533872495723e-11 0.00077122001477682351 37.763133124999982 163.12891490999996 154.67737105000003 1609.7391759139125 0.0000000000000000 0.0000000000000000 0.0000000000000000 0.0000000000000000 0.76671955078396492 0.19593376198297033 0.016688529557672690 0.12935185960580700 3803.4505967375580 0.12918432341786962 0.0000000000000000 
39.336256200949627 177.96387503124686 173.47849702109187 39.336256200949620 177.96387503124691 173.47849702109187 -10.171584055870937 7.2589301995598626e-07 1.3874237560877258e-06 -1.7523806961866274e-06 -13.371048467513051 -1.3294162623522787e-05 -2.3344296651295338e-07 -0.00028876668214583567 0.00061095518934974210 -3.6806335923502439e-11 -7.1875259117394712e-11 1.6173427020691079e-10 0.00075284127222426448 37.800763103000001 176.30222544999998 166.22815640000002 1278.4532315353756 0.0000000000000000 0.0000000000000000 0.0000000000000000 0.0000000000000000 0.76651039463813508 0.19582890330296226 0.016675399035214374 0.12927220928650612 3801.4337448958954 0.12913352304754608 0.0000000000000000 
30.655746376973116 165.22990636409830 182.78126542635343 30.655746376973124 165.22990636409830 182.78126542635343 -7.8612880233955735 1.0452247364539725e-06 1.1824517015085058e-06 -2.8911083116151127e-06 -8.3215936114017044 -1.1578314541793966e-05 -2.2314686476399006e-07 -0.00030289039382513927 0.00049791858231559838 -3.1184834037882592e-11 -1.6703492527291129e-11 1.5445053687254950e-10 0.00047433422596117851 29.318435967000010 163.64154443000001 175.17630729999999 1176.2421003033126 0.0000000000000000 0.0000000000000000 0.0000000000000000 0.0000000000000000 0.76680575485819336 0.19597980087692959 0.016694668814267254 0.12927220928650601 3805.2253748790226 0.12920797790926916 0.0000000000000000 
47.041053502804949 140.83082127327896 183.20042616455595 47.041053502804964 140.83082127327904 183.20042616455603 -6.7796735100558188 -3.7466024215442746e-06 1.0387340249804045e-06 -9.7834747031269519e-07 0.0000000000000000 -1.4817144783796365e-05 -2.0341893569586489e-07 -0.00030352677486988888 0.00053527444910324436 3.2679724192539746e-10 8.4288356087221951e-11 2.4083945031256544e-10 0.0000000000000000 45.329653981089926 139.38288308181924 175.57948981227980 1838.0408446142237 0.0000000000000000 0.0000000000000000 0.0000000000000000 0.0000000000000000 0.76788382082141726 0.19653056289468498 0.016765003829160977 0.12941712556916990 3802.2215271022910 0.12947953051328961 0.0000000000000000 
60.678241396510266 138.51916398983599 232.11070024113658 60.678241396510280 138.51916398983599 232.11070024113664 -5.1895155928654662 2.2235820974735721e-07 1.8509879271023596e-06 -1.7466547233497904e-06 -5.7778906964954118 -1.7512763263560771e-05 -2.0154983515485728e-07 -0.00037778366038865308 0.00032893572300592854 -3.5256459585352797e-11 -5.8463849332469676e-11 1.4399777408770797e-10 0.00023394843208601271 58.655494429999983 137.08453005000001 222.62532541000004 1283.0721019573000 0.0000000000000000 0.0000000000000000 0.0000000000000000 0.0000000000000000 0.76716138548788126 0.19616091730492721 0.016717724304332573 0.12927220928650615 3807.5093232055874 0.12929696219842104 0.0000000000000000 
38.864635461231636 151.77008235095235 227.98547575933574 38.864635461231629 151.77008235095238 227.98547575933577 -5.3948162423287602 1.0798744961759171e-06 5.8944763224327010e-07 -7.2846213570688072e-07 -6.2010035947682800 -1.3200938890345352e-05 -2.1226389590456307e-07 -0.00037152063431400428 0.00030499827721448315 -4.8624501471522420e-11 -4.8466221867937699e-11 8.0166571103120675e-11 0.00032912282934270280 37.339909825999996 150.25918557000000 218.65735269999999 1388.6032526015726 0.0000000000000000 0.0000000000000000 0.0000000000000000 0.0000000000000000 0.76715765318499785 0.19615941564327621 0.016717584960917957 0.12927220928650615 3806.6698854557012 0.12929646549453766 0.0000000000000000 
61.143556237735758 160.33125241361475 212.26374332342866 61.143556237735758 160.33125241361475 212.26374332342860 -6.0855258670059929 1.6875678710249658e-06 -5.0578367211550284e-07 -1.7277791740138997e-07 -6.4207239547569523 -1.7604740530697821e-05 -2.1918606063432875e-07 -0.00034765147986193180 0.00041763273446180016 -1.7871615995598570e-10 5.9854977558835728e-11 1.3294452040457888e-11 0.00035149209899079230 59.110185776999977 158.77108363999997 203.53492589999999 1913.3477276736232 0.0000000000000000 0.0000000000000000 0.0000000000000000 0.0000000000000000 0.76635012398184610 0.19574670913751083 0.016664861511345441 0.12927220928650598 3811.1100145512332 0.12909280683662067 0.0000000000000000 
47.045408905296782 133.11088614520057 206.38200456690598 47.045408905296803 133.11088614520065 206.38200456690603 -5.7490208323346401 -1.3155445372295650e-06 -2.9526477443468981e-07 1.0765454423179540e-06 0.0000000000000000 -1.4818005704908325e-05 -1.9717696986276678e-07 -0.00033872166687065554 0.00037352240317762425 5.2842580835793390e-11 4.1418904147492525e-11 -7.3182154295953076e-11 0.0000000000000000 45.333909946406948 131.70737839773392 197.87739647919071 1878.7089811415260 0.0000000000000000 0.0000000000000000 0.0000000000000000 0.0000000000000000 0.76689955741736460 0.19602795333034254 0.016700847835390487 0.12928524028391222 3810.2586100314843 0.12923190327417977 0.0000000000000000 
75.584426590642082 184.14060255221872 200.45360314125085 75.584426590642110 184.14060255221872 200.45360314125085 -7.8395510642087318 7.8953776255643775e-07 -1.7351213821397894e-06 4.4638984875803259e-07 -5.5570195621283878 -2.0459220289925636e-05 -2.3843717178451124e-07 -0.00032972100934469672 0.00064391909756467863 -3.2002769769711968e-10 1.5066840985837379e-10 -7.8841634677203626e-11 0.00050021320261414866 73.221359999000001 182.44340413000006 192.17498315000009 1916.8989385598338 0.0000000000000000 0.0000000000000000 0.0000000000000000 0.0000000000000000 0.76795749159258964 0.19656577057669891 0.016769184850064841 0.12939389401284851 3798.3736350992258 0.12949599122595665 0.0000000000000000 
84.818015541712086 143.04976908343667 218.46576836365304 84.818015541712114 143.04976908343676 218.46576836365301 -8.4780344242426686 5.4733389605117674e-07 1.0613433433990316e-06 -7.3504032942947813e-07 -5.5543222616523460 -2.2284393719207429e-05 -2.0521305765797138e-07 -0.00035706756006725904 0.00071241210259740024 -4.0445944845885019e-11 -1.9368013834028606e-10 1.4742388844060576e-10 0.00077856736412651754 82.244139041999972 141.58906020999996 209.50053243000002 2596.9063225776295 0.0000000000000000 0.0000000000000000 0.0000000000000000 0.0000000000000000 0.76719069112722249 0.19617631044753972 0.016719744205273352 0.12930362717238181 3805.5948520290126 0.12930491449920425 0.0000000000000000 
99.674537698314111 152.34050131530392 185.05369447025743 99.674537698314040 152.34050131530390 185.05369447025743 -13.023571302786062 6.4536412526182956e-06 9.4298384790492087e-08 -1.6732035755632759e-06 0.0000000000000000 -3.6370382522413341e-05 2.9690984931250620e-07 -0.00030131028712460979 0.0010563637070109756 -3.1389450145858564e-10 7.6742199717825714e-11 3.2421183776243109e-11 0.0000000000000000 96.634805924592328 150.82018211309926 177.41298922508184 2674.5721001240636 0.0000000000000000 0.0000000000000000 0.0000000000000000 0.0000000000000000 0.76704258117564217 0.19609735224845790 0.016709252866554277 0.12923618117329469 3796.2449781620085 0.12926383061986266 0.0000000000000000 
113.44052769340168 162.38719616687300 203.04347297205015 113.44052769340168 162.38719616687294 203.04347297205007 -17.372097329580964 5.5377480973080521e-06 7.4171648676235063e-07 -2.9926031009306288e-07 0.0000000000000000 -2.7942112389434118e-05 -2.2084838235958418e-07 -0.00033365301895060823 0.0010938397638568863 -1.9550943627163023e-10 -1.0197043993521738e-10 -1.5712348625159288e-11 0.0000000000000000 110.21317731831955 160.81519484644704 194.66612826377516 2907.4611518241991 0.0000000000000000 0.0000000000000000 0.0000000000000000 0.0000000000000000 0.76671378970198389 0.19593152326478933 0.016688343992621365 0.12918413893870270 3788.5853606267328 0.12918331926515136 0.0000000000000000 
71.096283702582483 139.21086191715597 199.04021602247343 71.096283702582483 139.21086191715588 199.04021602247337 -5.3680602792211269 8.4810080525295171e-07 1.4875475017456804e-06 3.6022975163653415e-06 0.0000000000000000 -1.9572063724382364e-05 -2.0210912010654170e-07 -0.00032757516723624924 0.00059228840644998668 -4.4681561982525954e-10 1.5163474647092538e-10 -2.3129097680977565e-10 0.0000000000000000 68.835684850694804 137.77224705707783 190.81547373645992 2302.4579037184249 0.0000000000000000 0.0000000000000000 0.0000000000000000 0.0000000000000000 0.76893514859074963 0.19706865527963896 0.016833846008908377 0.12950867117758152 3798.2608971726095 0.12974539384601866 0.0000000000000000 
86.576124184962964 176.58611742794164 182.02601710021725 86.576124184962993 176.58611742794164 182.02601710021733 -10.753121824809499 2.6140352051146527e-06 1.6372978021127086e-06 -1.1405893304471542e-06 0.0000000000000000 -3.3089450416448091e-05 -1.0893591572892290e-06 -0.00029564270021028086 0.00092755422618842739 -3.6866276210202474e-10 -2.2146928045002938e-10 9.4410191776017799e-11 0.0000000000000000 83.849638243891135 174.91172786385235 174.51222656391082 1667.9065348682720 0.0000000000000000 0.0000000000000000 0.0000000000000000 0.0000000000000000 0.76805349528286493 0.19661643520246128 0.016775866800410818 0.12936412529492888 3793.6369655872222 0.12952129383800678 0.0000000000000000 
104.35289435545205 228.65702490895364 189.26790273298994 104.35289435545204 228.65702490895364 189.26790273298997 -18.071043771879559 -3.0712994334592537e-06 2.3691386250691104e-06 7.3799572562889488e-07 -19.316970488178203 -2.6145789531417659e-05 -2.7443105032887161e-07 -0.00031273857998503907 0.0011366616387219405 2.2771185694416677e-10 -1.9109746875354133e-10 9.1573255873152259e-11 0.0010906585053683628 101.33302161000000 226.70362169000003 181.41567680000000 527.87335979314730 0.0000000000000000 0.0000000000000000 0.0000000000000000 0.0000000000000000 0.76707699133916230 0.19611833253300337 0.016712355356727725 0.12927220928650612 3785.8395104107226 0.12927627407918599 0.0000000000000000 
112.45260501361948 214.71493997569675 200.33148363866712 112.45260501361948 214.71493997569675 200.33148363866712 -16.057313654369437 8.5898901527073938e-07 1.0597020964404888e-07 -7.0840811296021824e-08 -14.991465969890108 -2.7746832935049426e-05 -2.6315813639321561e-07 -0.00032953560424719974 0.0011237066677720201 -2.7179759585919428e-10 1.8513451865778992e-10 7.6751992458545608e-12 0.0011728855030948111 109.24780967000000 212.84177746000000 192.05751878999999 1255.4436111582911 0.0000000000000000 0.0000000000000000 0.0000000000000000 0.0000000000000000 0.76698691216655390 0.19607273402479766 0.016706586238989133 0.12927220928650618 3791.2895740176687 0.12925398838552621 0.0000000000000000 
94.473612119696526 214.89023483182413 185.68097324480743 94.473612119696540 214.89023483182422 185.68097324480735 -17.268166046741069 1.9913435349394493e-07 3.8973109193182763e-06 -4.0812977296218475e-06 0.0000000000000000 -2.4192984022120004e-05 -2.6329988367379542e-07 -0.00030729280773855722 0.0010707014221591335 1.6209492117939430e-11 -4.3472484784835818e-10 2.0694230477661035e-10 0.0000000000000000 91.679290954562077 213.01606344388193 177.96547951144200 663.90724330950775 0.0000000000000000 0.0000000000000000 0.0000000000000000 0.0000000000000000 0.76699742055880415 0.19607542584826454 0.016706583790105464 0.12926531453083567 3789.0453399973735 0.12925392604747452 0.0000000000000000 
66.176761180828677 213.56223431894395 173.89938984876105 66.176761180828649 213.56223431894401 173.89938984876102 -17.257941139329034 3.9343392600033876e-06 5.7841516392223877e-06 -3.6106995341241100e-06 0.0000000000000000 -2.1044633582621647e-05 -3.6721978024661117e-06 -0.00028619906778356159 0.00097399670925033097 -2.5220989579173235e-10 -4.1473380135747302e-10 1.3037563041607348e-11 0.0000000000000000 64.005185165032174 211.65254642520509 166.67194214610197 754.86350931875324 0.0000000000000000 0.0000000000000000 0.0000000000000000 0.0000000000000000 0.76733448829418671 0.19624676850225450 0.016728361324674697 0.12927935663055926 3786.0498987521673 0.12933797901371402 0.0000000000000000 
62.972418714977863 186.16681656616447 169.91524308113634 62.972418714977884 186.16681656616453 169.91524308113637 -12.062772496990570 -1.0227081141612558e-06 -7.8053262987981534e-08 -1.1523061568430325e-06 0.0000000000000000 -1.7966245814848847e-05 -2.4007547660964690e-07 -0.00028335685478109163 0.00084073806286966818 -5.7504372635856818e-11 6.0649737162746430e-11 1.1591748807690055e-10 0.0000000000000000 60.897293923099205 184.45795670032331 162.80073215801758 1456.3555990979894 0.0000000000000000 0.0000000000000000 0.0000000000000000 0.0000000000000000 0.76789448699188501 0.19653626009968680 0.016765762679965338 0.12941709040939298 3790.0539288779551 0.12948269350213251 0.0000000000000000 
91.000600466034584 197.81916911991433 145.08998044330437 91.000600466034527 197.81916911991442 145.08998044330434 -20.421663657386485 3.8607111469017105e-07 4.0453724831013920e-06 -1.8698713165896245e-06 0.0000000000000000 -2.3506485135493801e-05 -2.4949701304954885e-07 -0.00024566647741441905 0.0011901737946074882 -4.8371500491056763e-11 -1.0536097904513825e-10 5.6141932330971032e-11 0.0000000000000000 88.285570817050015 196.04324661832075 138.92179778727578 2284.4992455537940 0.0000000000000000 0.0000000000000000 0.0000000000000000 0.0000000000000000 0.76677936280350323 0.19596658072183545 0.016693010086053898 0.12917960952590987 3784.1336422509203 0.12920137057551004 0.0000000000000000 
84.443979579317883 176.17419516845030 160.50278347461705 84.443979579317840 176.17419516845032 160.50278347461702 -13.138881653993773 1.3071825924889874e-06 1.6134143918930737e-06 -1.2171497196880584e-06 0.0000000000000000 -2.8119185994971977e-05 -3.7634686918859593e-06 -0.00026446158115657459 0.0010914786930580973 -6.9078867156787556e-11 -5.4106084986432606e-11 7.5290190312063734e-11 0.0000000000000000 81.814121362732124 174.46733636348887 153.79871785113039 1849.3455604645501 0.0000000000000000 0.0000000000000000 0.0000000000000000 0.0000000000000000 0.76733448488887013 0.19625182774622021 0.016729645537250135 0.12934547537965607 3795.7483786975204 0.12934303723835314 0.0000000000000000 
79.067165689823682 239.48620304952502 178.94034560516477 79.067165689823682 239.48620304952507 178.94034560516477 -24.161770542463060 9.1111206712484015e-07 -2.7169733569974530e-07 -3.4273497820669708e-06 -23.157712487863709 -2.1147641974916809e-05 -2.8318699807350361e-07 -0.00029705900668752783 0.0012703129362676045 -5.5113338911774330e-11 2.4304068101777571e-11 -2.6995595834365032e-11 0.0012731136705465636 76.624585496999998 237.47047479999995 171.48180167999999 450.61312636181810 0.0000000000000000 0.0000000000000000 0.0000000000000000 0.0000000000000000 0.76730510490036330 0.19623842493274782 0.016728148384657558 0.12927220928650621 3773.0663212345335 0.12933741597281889 0.0000000000000000 
68.826490196635589 239.32348467856391 162.71290923412502 68.826490196635604 239.32348467856397 162.71290923412499 -28.282815540323416 -4.4146212109971304e-07 -2.0686089637323150e-07 -3.6154209436876671e-06 -29.863569087884226 -1.9123401040929049e-05 -2.8305543975620107e-07 -0.00027242207899047527 0.0012825766618828984 2.8822857174951939e-11 1.0926625905068102e-11 -4.1020863000313600e-12 0.0013102403774411004 66.617712469000011 237.30869291999991 155.87294816000005 715.16986369778181 0.0000000000000000 0.0000000000000000 0.0000000000000000 0.0000000000000000 0.76675873164353781 0.19595228501699499 0.016690704508367484 0.12919493039251212 3767.6848202465171 0.12919237461508443 0.0000000000000000 
89.922260289824635 238.93369494670108 153.49388650790229 89.922260289824635 238.93369494670108 153.49388650790229 -27.541594776545775 -1.6646257690556866e-06 -1.3227366330850894e-07 -1.9200926709195109e-06 -31.626255780506842 -2.3293333146098404e-05 -2.8274028318632562e-07 -0.00025842551226262778 0.0012566453259882577 4.1773311392598136e-11 -5.3968250639182674e-11 -4.4251589968813607e-11 0.0013026382257748368 87.231849972999981 236.92114653999997 147.00535059000001 1226.5804134212974 0.0000000000000000 0.0000000000000000 0.0000000000000000 0.0000000000000000 0.76705052280628938 0.19610440791323613 0.016710523904020193 0.12921031789613224 3765.9541681724727 0.12926917506157173 0.0000000000000000 
89.708947206619868 226.72338802856314 169.20589101832053 89.708947206619825 226.72338802856305 169.20589101832050 -23.096475887194497 -1.9243907563105791e-06 2.4695729910042746e-06 -2.6453903038862830e-06 0.0000000000000000 -2.3251168237647946e-05 -2.7286760828637568e-07 -0.00028227989751283822 0.0012327450761668943 7.8253302956409315e-11 -1.4684156704206122e-10 -5.1148985956917579e-11 0.0000000000000000 87.023406990868523 224.78111344523825 162.11842028882040 681.06850806740897 0.0000000000000000 0.0000000000000000 0.0000000000000000 0.0000000000000000 0.76676373346919247 0.19595347808431671 0.016690679389510240 0.12920761727040189 3779.9289787029024 0.12919238805003289 0.0000000000000000 
89.501986497112782 198.25047221650462 193.80435070713585 89.501986497112753 198.25047221650459 193.80435070713577 -12.298531767424135 2.1907663043039171e-06 -4.5052051866435183e-07 -1.1049921238290669e-06 0.0000000000000000 -2.3210258996764214e-05 -2.4984575897057937e-07 -0.00031962593654299987 0.00092211340817894194 -4.0332354563208276e-10 3.6664556398538529e-10 8.4519386752169242e-11 0.0000000000000000 86.821171352877627 196.47206744171046 185.77919734079927 1095.9217422697654 0.0000000000000000 0.0000000000000000 0.0000000000000000 0.0000000000000000 0.76719620178883963 0.19617687138891074 0.016719533140956925 0.12930493484292044 3797.7703616079098 0.12930401272792630 0.0000000000000000 
31.373694515885166 216.33023867365193 136.75444028283067 31.373694515885170 216.33023867365188 136.75444028283070 -17.602334766384971 2.1499073493192167e-07 1.6533249462583467e-06 1.9860666215511748e-07 -19.137396748861434 -1.1720229009526743e-05 -2.6446419920667102e-07 -0.00023301123753705077 0.00099325845319994405 -2.0565285855632283e-11 -1.1088705377198917e-10 -2.5095213296934726e-11 0.0010354134217602075 30.019992800000004 214.44777965000000 130.90400481000003 1639.8558849024062 0.0000000000000000 0.0000000000000000 0.0000000000000000 0.0000000000000000 0.76701315147383364 0.19608585051418514 0.016708223791284924 0.12927220928650621 3787.8107206054387 0.12926029959024390 0.0000000000000000 