# For a description of the Tecplot format see the Tecplot User's guide.
#
Variables=x,y,z,s_u,s_v,s_w,s_p,mono_f_vel_u,mono_f_vel_v,mono_f_vel_w,const,u_nu,v_nu,w_nu,p_nu,x_nu,y_nu,z_nu,const,u_ref,v_ref,w_ref,vol_ref,x_ref,y_ref,z_ref,const,I1,I2,I3,J,p1,p2,p3
Zone f=fepoint, n=246, e=987, et=brick, c=black
39.3493 187.705 159.196 39.349299908790258 187.70542966615434 159.19597522174314 -15.062326140262462 -8.8528077647165045e-07 3.3040244612782233e-07 -2.8195707642374586e-07 -13.722125791020572 -1.3296740927759563e-05 -2.4131952147676827e-07 -0.00026708257577490180 0.00093840668520375693 5.9810313428585635e-11 -9.9967795180331957e-11 -1.4128940342689421e-11 0.00091733530139799036 37.813509013000001 185.98771463999995 152.49007815000002 1568.1286420541724 0.0000000000000000 0.0000000000000000 0.0000000000000000 0.0000000000000000 0.76723565384691972 0.19620005106600316 0.016722877442048582 0.12927743838370626 3791.8068673995081 0.12931693079285816 0.0000000000000000 
39.290024462960901 203.40263128001527 173.31039045141424 39.290024462960901 203.40263128001521 173.31039045141418 -14.098096915975026 -1.4488950018403426e-06 6.2623891447412405e-08 -5.0746424078501770e-06 -11.920731531132251 -1.3285024142994928e-05 -2.5401153092019513e-07 -0.00028851145825403712 0.00083240703279748973 7.6943999627384451e-11 -8.5617161352282865e-11 4.2689227182569312e-10 0.00067913582694799194 37.755586870999998 201.59457435000007 166.06645798000000 1115.6658590402926 0.0000000000000000 0.0000000000000000 0.0000000000000000 0.0000000000000000 0.76717555370135659 0.19616874789228514 0.016718800298057442 0.12928454706403486 3795.1277633937480 0.12930120137856363 0.0000000000000000 
66.889287056240036 205.21891161686364 153.82785881273125 66.889287056240008 205.21891161686372 153.82785881273131 -19.084130732069347 3.1278829468960435e-06 5.6680980914559214e-06 -2.6158710469445298e-06 0.0000000000000000 -2.0763377273332069e-05 -5.4927317779344225e-06 -0.00025651291621650840 0.0010655963255809958 -1.3005104581687299e-10 -2.9728036661642667e-10 9.3974402985014423e-11 0.0000000000000000 64.706898088665852 203.32599865957309 147.35284761981995 1170.9507322714735 0.0000000000000000 0.0000000000000000 0.0000000000000000 0.0000000000000000 0.76677963387299652 0.19596738291134844 0.016693198258110779 0.12920451026965349 3787.3876403739710 0.12920192113116405 0.0000000000000000 
59.983400361614379 220.70148314919129 160.70956859248042 59.983400361614422 220.70148314919143 160.70956859248051 -22.997595080583043 2.4996202039080861e-06 6.5271849472760596e-06 -4.4292866776904783e-06 0.0000000000000000 -1.7375416296205870e-05 -2.6799856933656940e-07 -0.00026938055369485353 0.0011433915281336461 3.6075397102684521e-12 -3.9709029268706078e-10 7.4757439034832211e-11 0.0000000000000000 57.976517148132935 218.79386635806736 153.94597399654558 871.12382118538517 0.0000000000000000 0.0000000000000000 0.0000000000000000 0.0000000000000000 0.76644224174038300 0.19579178101619346 0.016670352972459796 0.12918079596021728 3782.6977750257929 0.12911371246447259 0.0000000000000000 
109.29959109113388 204.77037274339702 174.79128099478672 109.29959109113391 204.77037274339699 174.79128099478669 -17.201324314156857 -9.4875396239095896e-08 1.0826972249342008e-06 -1.4833735405790972e-06 0.0000000000000000 -2.7123586960220436e-05 -2.5511743229067463e-07 -0.00029075978587056461 0.0011723227075952076 -1.3956558907636076e-10 4.3472732310576231e-11 -8.3817001445578061e-12 0.0000000000000000 106.16678147036436 202.95444406841523 167.49089761680582 1451.6544664497774 0.0000000000000000 0.0000000000000000 0.0000000000000000 0.0000000000000000 0.76712249362845830 0.19614130057348958 0.016715248291638399 0.12925320350391384 3790.4060842798799 0.12928744590625560 0.0000000000000000 
95.656998235597598 215.36078503478365 159.16519160983339 95.656998235597655 215.36078503478356 159.16519160983341 -22.197350633029398 -1.9956437202690547e-06 3.4334139686210571e-06 -4.6340570647017688e-06 0.0000000000000000 -2.4426900092633371e-05 -2.6368033889667691e-07 -0.00026703583925802299 0.0011806794700447917 -1.0667300021139574e-11 -1.8230271988499064e-10 3.8576072436066527e-11 0.0000000000000000 92.835659459041835 213.48390549527133 152.46046799605259 1374.0431229362807 0.0000000000000000 0.0000000000000000 0.0000000000000000 0.0000000000000000 0.76641263047388319 0.19577890069093404 0.016669000730497926 0.12916343092799540 3781.9029118267504 0.12910844025767240 0.0000000000000000 
108.92393288151843 180.46454702375112 174.49059960980773 108.92393288151837 180.46454702375107 174.49059960980773 -17.008429338804145 4.0875048021020172e-06 -1.5117606867149583e-06 1.1016276149198188e-07 0.0000000000000000 -2.7049331814188449e-05 -2.3546489846815177e-07 -0.00029030328334411776 0.0011855699712182925 -1.2947684725414930e-10 2.5967419679062489e-12 -5.0933936619615086e-11 0.0000000000000000 105.79969982540383 178.78850535694073 167.20167807608388 2450.7686744678872 0.0000000000000000 0.0000000000000000 0.0000000000000000 0.0000000000000000 0.76635645724391954 0.19574901705976258 0.016665047462760159 0.12915890932425547 3794.4040661511276 0.12909318564769162 0.0000000000000000 
78.158721087693721 195.08600054945177 163.85448220955581 78.158721087693721 195.08600054945180 163.85448220955584 -16.110929757834253 7.0904876000143748e-07 3.7717970860555135e-06 -2.7542136818538492e-06 0.0000000000000000 -2.3932096200234367e-05 -6.9121038093743682e-06 -0.00026912188624597303 0.0010571146927950909 -4.8533606098207839e-11 -1.7155092393965139e-10 5.9055390810192108e-11 0.0000000000000000 75.717375094302042 193.21622810126507 157.03338180528999 1144.4826376458880 0.0000000000000000 0.0000000000000000 0.0000000000000000 0.0000000000000000 0.76756511336252420 0.19637226334636615 0.016745365722220202 0.12928505126217288 3786.4741832584896 0.12940361834460890 0.0000000000000000 
123.85202822677846 179.60613241417718 139.31533546893979 123.85202822677844 179.60613241417724 139.31533546893979 -21.555476323483823 -6.4537003540834636e-07 -2.9908430990249502e-06 -3.4937524372814691e-06 -21.514775283776697 -3.0000119762840782e-05 -2.3477082677914038e-07 -0.00023689925705228101 0.0012370464402070541 -4.3187800151224692e-11 8.9953400046065761e-11 4.0707702245249855e-11 0.0013448790882947678 120.38697531999998 177.93503117000000 133.36727978000002 3315.6872353797526 0.0000000000000000 0.0000000000000000 0.0000000000000000 0.0000000000000000 0.76691289424049625 0.19603495121583606 0.016701768476171212 0.12918454850694652 3782.0245694450841 0.12923522071512078 0.0000000000000000 
125.92797729922373 152.17614077353022 173.36610430170805 125.92797729922373 152.17614077353025 173.36610430170811 -21.503548589376493 2.0494961745883235e-07 3.3386536404978910e-07 1.1807867487115466e-06 0.0000000000000000 -3.0410465841734791e-05 -2.1259221649749810e-07 -0.00028859604452002863 0.0011947953863121195 8.7522624574356084e-12 1.3591591653342934e-11 2.8326966904080913e-11 0.0000000000000000 122.41552888508200 150.66290700972726 166.12004804243418 2788.4559803272532 0.0000000000000000 0.0000000000000000 0.0000000000000000 0.0000000000000000 0.76598122049592032 0.19555704518985978 0.016640496359976220 0.12912914246864404 3786.8485590394062 0.12899796758463661 0.0000000000000000 
106.34868960291963 160.57296525184449 157.57249434738051 106.34868960291963 160.57296525184444 157.57249434738054 -18.101253060248485 2.8066235548181602e-06 -3.0883613358726917e-06 -2.0966510467523786e-06 0.0000000000000000 -3.4713201669859534e-05 8.3442060074616719e-07 -0.00025929132317054125 0.0011880628119397144 -6.5508368049540134e-11 6.7426965792094396e-11 3.4834351984740866e-11 0.0000000000000000 103.16264437007636 159.03337825173907 151.00577047027593 2614.5647304445974 0.0000000000000000 0.0000000000000000 0.0000000000000000 0.0000000000000000 0.76563245721320738 0.19537956235876972 0.016617913432745570 0.12908768473915053 3796.5290103071256 0.12891087714610489 0.0000000000000000 
139.15964000836811 136.64200853101113 218.08156871950419 139.15964000836811 136.64200853101110 218.08156871950422 -15.384153096803635 1.7276544801153439e-06 4.3994874949559382e-06 -4.0755375589256599e-06 -12.862463782050984 -3.3025925479048604e-05 -2.0003204281859865e-07 -0.00035648425790513199 0.00090174314418867889 -1.1667746343913129e-10 -3.3637535659831531e-10 1.4715985079445912e-10 0.00082826574109068503 135.34510260000002 135.21817816000001 209.13097830999999 2383.2023779596761 0.0000000000000000 0.0000000000000000 0.0000000000000000 0.0000000000000000 0.76712375643703890 0.19614228276802362 0.016715420146106805 0.12927220928650601 3791.8591824416749 0.12928815689968773 0.0000000000000000 
119.73341268947533 102.38167485037596 198.61811933289522 119.73341268947532 102.38167485037594 198.61811933289525 -18.256249764357580 -1.7681704191515128e-06 -1.9028352276849845e-06 -4.2353418767004062e-06 -20.312123220760292 -2.9186006458514772e-05 -1.7233077298506316e-07 -0.00032693432876773626 0.00099753576722310246 9.2395342253661253e-11 1.3633560836895310e-10 1.7754575651025055e-10 0.0010105552284593558 116.36239092999996 101.15502254000000 190.40946719000002 2640.5657475930620 0.0000000000000000 0.0000000000000000 0.0000000000000000 0.0000000000000000 0.76738525138153080 0.19627612802312874 0.016732541991053586 0.12927220928650604 3780.0710254410810 0.12935440433174653 0.0000000000000000 
125.23630251913531 109.40127193779297 229.67961470261025 125.23630251913531 109.40127193779298 229.67961470261025 -12.691825539061940 -2.2435918353239957e-06 -5.0895453429914661e-06 -4.5643278491864768e-07 -9.6456095966696989 -3.0273744749510495e-05 -1.7800648333232635e-07 -0.00037409272135335939 0.00073269171144055300 1.8005030978137893e-10 2.7855233330875210e-10 -6.7806009340752051e-11 0.00058883685621886135 121.73964556999999 108.13421982999998 220.28691180000004 1907.3938422647439 0.0000000000000000 0.0000000000000000 0.0000000000000000 0.0000000000000000 0.76702610429238871 0.19609183670491609 0.016708908873675817 0.12927220928650615 3798.3930538310910 0.12926294552504067 0.0000000000000000 
107.89592354430346 123.28610549696624 215.58042087834056 107.89592354430350 123.28610549696624 215.58042087834056 -11.810538846895978 2.8076020355322901e-07 -2.9211972092522159e-07 -5.0368945765331986e-06 0.0000000000000000 -2.6846128568847050e-05 -1.8923310163287965e-07 -0.00035268694839118991 0.00077297652808713845 -4.9672111591660984e-11 -2.9318433250368270e-11 1.7650093539409005e-10 0.0000000000000000 104.79516072874441 121.93914218401807 206.72517314201556 2433.5838456336692 0.0000000000000000 0.0000000000000000 0.0000000000000000 0.0000000000000000 0.76706446727025723 0.19611205484304775 0.016711565904247602 0.12927220928650607 3799.5249623165964 0.12927321991525129 0.0000000000000000 
39.297747029059913 164.71430943568481 161.46995109794048 39.297747029059913 164.71430943568478 161.46995109794045 -8.7496577032320211 1.1711274013975287e-06 2.6144227458498330e-06 2.2676725298549820e-06 -9.9155112267950507 -1.3286550636815166e-05 -2.2272997746153328e-07 -0.00027053498672668930 0.00072118493958416984 -1.1147754419358809e-10 -1.3090813499953236e-10 6.2890687450915013e-11 0.00075272559907526963 37.763133124999982 163.12891490999996 154.67737105000003 1609.7391759139125 0.0000000000000000 0.0000000000000000 0.0000000000000000 0.0000000000000000 0.76662184804390821 0.19588410825606586 0.016682221378775456 0.12932482538795767 3804.5162721377574 0.12915993526000960 0.0000000000000000 
39.336256200949627 177.96387503124686 173.47849702109187 39.336256200949620 177.96387503124691 173.47849702109187 -10.150737381120980 7.2754193941571690e-07 1.4104320067386315e-06 -1.7225771100608790e-06 -13.402783577939951 -1.3294162623522786e-05 -2.3344296651295340e-07 -0.00028876668214583567 0.00060969343909719450 -3.7099023501215382e-11 -7.5902566747239706e-11 1.5753179351659628e-10 0.00075736022883622633 37.800763103000001 176.30222544999998 166.22815640000002 1278.4532315353756 0.0000000000000000 0.0000000000000000 0.0000000000000000 0.0000000000000000 0.76665396961934162 0.19590284546369754 0.016684919393682419 0.12927220928650612 3800.2294637636810 0.12917023940606748 0.0000000000000000 
30.655746376973116 165.22990636409830 182.78126542635343 30.655746376973124 165.22990636409830 182.78126542635343 -7.8160395475182307 1.0595926833657266e-06 1.2130963505249281e-06 -2.8624583954204973e-06 -8.3461859561029978 -1.1578314541794200e-05 -2.2314686476399004e-07 -0.00030289039382513922 0.00049477352070792003 -3.3606971954565222e-11 -2.0910106543640419e-11 1.5162213412359797e-10 0.00047593653013453988 29.318435967000010 163.64154443000001 175.17630729999999 1176.2421003033126 0.0000000000000000 0.0000000000000000 0.0000000000000000 0.0000000000000000 0.76700660899601047 0.19608288314222652 0.016707893445342931 0.12927220928650601 3803.5335046513264 0.12925902453880891 0.0000000000000000 
47.041053502804949 140.83082127327896 183.20042616455595 47.041053502804964 140.83082127327904 183.20042616455603 -6.7093475043667699 -3.8616215052642302e-06 1.1237781709909150e-06 -7.9774819174201453e-07 0.0000000000000000 -1.4817144783796365e-05 -2.0341893569586489e-07 -0.00030352677486988888 0.00052859195553307337 3.3963156771001118e-10 7.2348845476301143e-11 2.2743542842161795e-10 0.0000000000000000 45.329653981089926 139.38288308181924 175.57948981227980 1838.0408446142237 0.0000000000000000 0.0000000000000000 0.0000000000000000 0.0000000000000000 0.76736236175169725 0.19626302458412623 0.016730690947393153 0.12936444973172853 3806.9039440619376 0.12934709220947130 0.0000000000000000 
60.678241396510266 138.51916398983599 232.11070024113658 60.678241396510280 138.51916398983599 232.11070024113664 -5.1857659070169229 2.1803551214184166e-07 1.8443577124574348e-06 -1.7435042441864593e-06 -5.7672695468478770 -1.7512763263560774e-05 -2.0154983515485722e-07 -0.00037778366038865302 0.00033223235329108135 -3.8806528649826522e-11 -5.5266887148548396e-11 1.4295721123201402e-10 0.00023567503122211636 58.655494429999983 137.08453005000001 222.62532541000004 1283.0721019573000 0.0000000000000000 0.0000000000000000 0.0000000000000000 0.0000000000000000 0.76715046237623497 0.19615497643052185 0.016716919197137640 0.12927220928650615 3807.6108513226791 0.12929391946809224 0.0000000000000000 
38.864635461231636 151.77008235095235 227.98547575933574 38.864635461231629 151.77008235095238 227.98547575933577 -5.3993801767608556 1.0798110936780888e-06 5.8124940471527581e-07 -7.2083970529342172e-07 -6.1894870134836637 -1.3200938890345348e-05 -2.1226389590456312e-07 -0.00037152063431400434 0.00030583127096597547 -4.7136356839515719e-11 -4.9766252602926411e-11 8.1136993143247048e-11 0.00033017095922036841 37.339909825999996 150.25918557000000 218.65735269999999 1388.6032526015726 0.0000000000000000 0.0000000000000000 0.0000000000000000 0.0000000000000000 0.76710868033544621 0.19613453186315019 0.016714424097056566 0.12927220928650615 3807.0822785927148 0.12928425171694832 0.0000000000000000 
61.143556237735758 160.33125241361475 212.26374332342866 61.143556237735758 160.33125241361475 212.26374332342860 -6.0850418095724503 1.7029758503238932e-06 -4.9974477225552078e-07 -1.8023840438695600e-07 -6.4743228887190396 -1.7604740530696764e-05 -2.1918606063455020e-07 -0.00034765147986193196 0.00042001232683419327 -1.8152563123953350e-10 6.0133298544404572e-11 1.3683146108522306e-11 0.00035155350743538256 59.110185776999977 158.77108363999997 203.53492589999999 1913.3477276736232 0.0000000000000000 0.0000000000000000 0.0000000000000000 0.0000000000000000 0.76650065470137274 0.19582386446888295 0.016674749138575060 0.12927220928650598 3809.7928570578783 0.12913094538482689 0.0000000000000000 
47.045408905296782 133.11088614520057 206.38200456690598 47.045408905296803 133.11088614520065 206.38200456690603 -5.7466549613935927 -1.3431683663128888e-06 -2.9631585500146579e-07 1.0394781697555499e-06 0.0000000000000000 -1.4818005704908486e-05 -1.9717696986276681e-07 -0.00033872166687065543 0.00037692851528974897 5.2473690936145094e-11 4.3549639299920832e-11 -7.2074047840182644e-11 0.0000000000000000 45.333909946406948 131.70737839773392 197.87739647919071 1878.7089811415260 0.0000000000000000 0.0000000000000000 0.0000000000000000 0.0000000000000000 0.76703979591164606 0.19609951291810832 0.016709976212695096 0.12928375153851587 3809.0765059831474 0.12926711944375269 0.0000000000000000 
75.584426590642082 184.14060255221872 200.45360314125085 75.584426590642110 184.14060255221872 200.45360314125085 -7.8346544952446910 7.4914781502388503e-07 -1.7623495633800245e-06 4.5121835875633865e-07 -5.6365772698445049 -2.0459220289925639e-05 -2.3843717178451129e-07 -0.00032972100934469672 0.00064538116133877046 -3.2104799056309486e-10 1.5476897543669269e-10 -8.0250385581422981e-11 0.00050532768087100646 73.221359999000001 182.44340413000006 192.17498315000009 1916.8989385598338 0.0000000000000000 0.0000000000000000 0.0000000000000000 0.0000000000000000 0.76817055082053887 0.19667549449163099 0.016783309869459143 0.12939011425490191 3796.4957064144451 0.12955052554807886 0.0000000000000000 
84.818015541712086 143.04976908343667 218.46576836365304 84.818015541712114 143.04976908343676 218.46576836365301 -8.4651912348993470 5.7467132069956231e-07 1.0712789195032721e-06 -7.3873137318260855e-07 -5.4996164354629693 -2.2284393719207426e-05 -2.0521305765797138e-07 -0.00035706756006725904 0.00072039258331780870 -4.0164483714426909e-11 -1.9668275077624382e-10 1.4913874883729736e-10 0.00079299271604494151 82.244139041999972 141.58906020999996 209.50053243000002 2596.9063225776295 0.0000000000000000 0.0000000000000000 0.0000000000000000 0.0000000000000000 0.76721898414847756 0.19619113842200173 0.016721685569668857 0.12929903204265944 3805.4062825457177 0.12931231609720836 0.0000000000000000 
99.696765046537237 152.35365713008949 185.06562861154075 99.696765046537195 152.35365713008954 185.06562861154080 -13.042088466554114 6.4598566804668000e-06 7.0543126458965139e-08 -1.6767752802865676e-06 0.0000000000000000 -3.6708864557896934e-05 6.6949881221220868e-07 -0.00030130994683246447 0.0010565360438195416 -3.1184247527413747e-10 8.0644002329035648e-11 1.9450811436699120e-11 0.0000000000000000 96.634805924592328 150.82018211309926 177.41298922508184 2674.5721001240636 0.0000000000000000 0.0000000000000000 0.0000000000000000 0.0000000000000000 0.76668397825564816 0.19591350406413796 0.016685690366036610 0.12918704194336622 3799.3676291384904 0.12917264116889060 0.0000000000000000 
113.44052769340168 162.38719616687300 203.04347297205015 113.44052769340168 162.38719616687294 203.04347297205007 -17.359945216105938 5.5537828315087824e-06 7.4059987140531195e-07 -2.4687683999575713e-07 0.0000000000000000 -2.7942112389434115e-05 -2.2084838235958412e-07 -0.00033365301895060817 0.0010951622060810040 -1.8989881329512294e-10 -1.0191826558110886e-10 -1.7004974443225985e-11 0.0000000000000000 110.21317731831955 160.81519484644704 194.66612826377516 2907.4611518241991 0.0000000000000000 0.0000000000000000 0.0000000000000000 0.0000000000000000 0.76655060270233844 0.19584815772272449 0.016677698988305022 0.12915141087467441 3790.0200432773554 0.12914209077340741 0.0000000000000000 
71.096283702582483 139.21086191715597 199.04021602247343 71.096283702582483 139.21086191715588 199.04021602247337 -5.3467697399096084 8.1676878705365903e-07 1.6068805936936173e-06 3.7383106901696508e-06 0.0000000000000000 -1.9572063724382360e-05 -2.0210912010654170e-07 -0.00032757516723624924 0.00059775391519644307 -4.5301077792189972e-10 1.4978365856317041e-10 -2.3905826430504072e-10 0.0000000000000000 68.835684850694804 137.77224705707783 190.81547373645992 2302.4579037184249 0.0000000000000000 0.0000000000000000 0.0000000000000000 0.0000000000000000 0.76825375128681384 0.19671966948449612 0.016789159837298007 0.12944689250532199 3804.1724598399642 0.12957307484635419 0.0000000000000000 
86.592464723489883 176.59775532296467 182.03471883981368 86.592464723489869 176.59775532296470 182.03471883981368 -10.720965233234372 2.5588609710272319e-06 1.6246693812890154e-06 -1.0933335598675293e-06 0.0000000000000000 -3.3325750385201557e-05 -8.1581229614861311e-07 -0.00029562629755495404 0.00092131038274802940 -3.6555547745719283e-10 -2.2639772531043637e-10 7.8945442897589633e-11 0.0000000000000000 83.849638243891135 174.91172786385235 174.51222656391082 1667.9065348682720 0.0000000000000000 0.0000000000000000 0.0000000000000000 0.0000000000000000 0.76802014697650856 0.19659832571173383 0.016773414319916205 0.12932192364213727 3794.0529357976930 0.12951159801114279 0.0000000000000000 
104.35289435545205 228.65702490895364 189.26790273298994 104.35289435545204 228.65702490895364 189.26790273298997 -18.061646319674544 -3.0733471007144922e-06 2.3683413534294904e-06 7.3713104634464454e-07 -19.306219393586399 -2.6145789531417662e-05 -2.7443105032887161e-07 -0.00031273857998503907 0.0011285831304442846 2.2915248932953458e-10 -1.9535280583261536e-10 9.7846052512271712e-11 0.0010789012860195279 101.33302161000000 226.70362169000003 181.41567680000000 527.87335979314730 0.0000000000000000 0.0000000000000000 0.0000000000000000 0.0000000000000000 0.76705823238165749 0.19610872253506287 0.016711124720570080 0.12927220928650612 3786.0140629871780 0.12927151989798222 0.0000000000000000 
112.45260501361948 214.71493997569675 200.33148363866712 112.45260501361948 214.71493997569675 200.33148363866712 -16.045555350985229 8.6909501470151712e-07 1.1031487286941218e-07 -8.2782636668218360e-08 -14.989470937095630 -2.7746832935049426e-05 -2.6315813639321561e-07 -0.00032953560424719974 0.0011170430900712704 -2.7951708947141261e-10 1.9255685492043999e-10 7.2420762532740451e-12 0.0011660290085390463 109.24780967000000 212.84177746000000 192.05751878999999 1255.4436111582911 0.0000000000000000 0.0000000000000000 0.0000000000000000 0.0000000000000000 0.76700328603986889 0.19608114618086211 0.016707666737061234 0.12927220928650618 3791.1575177022455 0.12925815520821746 0.0000000000000000 
94.473612119696526 214.89023483182413 185.68097324480743 94.473612119696540 214.89023483182422 185.68097324480735 -17.253486270293326 2.0430809973338118e-07 3.9067662383320472e-06 -4.0738683145995038e-06 0.0000000000000000 -2.4192984022120001e-05 -2.6329988367379542e-07 -0.00030729280773855727 0.0010642746735098759 2.1181701246633003e-11 -4.3798718661517512e-10 2.0951715177183805e-10 0.0000000000000000 91.679290954562077 213.01606344388193 177.96547951144200 663.90724330950775 0.0000000000000000 0.0000000000000000 0.0000000000000000 0.0000000000000000 0.76701567719750829 0.19608479259148631 0.016707785022378741 0.12926369891278849 3788.9128733511175 0.12925855886946847 0.0000000000000000 
66.176051110847837 213.56277140105468 173.89968847549039 66.176051110847823 213.56277140105462 173.89968847549051 -17.242519340255647 3.9138446235054274e-06 5.7827991869229129e-06 -3.6037071914424081e-06 0.0000000000000000 -2.1021605965015840e-05 -3.6655244511465009e-06 -0.00028621441601618414 0.00097169631136441871 -2.4879873341788831e-10 -4.1289288753057999e-10 1.0950935428941722e-11 0.0000000000000000 64.005185165032174 211.65254642520509 166.67194214610197 754.86350931875324 0.0000000000000000 0.0000000000000000 0.0000000000000000 0.0000000000000000 0.76730556288365415 0.19623181928043587 0.016726430083196967 0.12927502994193779 3786.3298517239355 0.12933050802785487 0.0000000000000000 
62.972418714977863 186.16681656616447 169.91524308113634 62.972418714977884 186.16681656616453 169.91524308113637 -12.036089331579193 -1.0495738488324054e-06 -5.0631251071184830e-08 -1.0939183045994883e-06 0.0000000000000000 -1.7966245814848847e-05 -2.4007547660964690e-07 -0.00028335685478109168 0.00083605331290940836 -5.3029179321289721e-11 5.7816718113200810e-11 1.1263194760577045e-10 0.0000000000000000 60.897293923099205 184.45795670032331 162.80073215801758 1456.3555990979894 0.0000000000000000 0.0000000000000000 0.0000000000000000 0.0000000000000000 0.76788472157535625 0.19653141048472197 0.016765161104888123 0.12940703689452851 3790.1658186987179 0.12948038774516754 0.0000000000000000 
91.000600466034584 197.81916911991433 145.08998044330437 91.000600466034527 197.81916911991442 145.08998044330434 -20.395432541708885 3.8232154418491024e-07 4.0431885939028492e-06 -1.8905177785572294e-06 0.0000000000000000 -2.3506485135493804e-05 -2.4949701304954885e-07 -0.00024566647741441905 0.0011781248263709088 -4.4489498608914410e-11 -1.0983803498599886e-10 5.6616876862415353e-11 0.0000000000000000 88.285570817050015 196.04324661832075 138.92179778727578 2284.4992455537940 0.0000000000000000 0.0000000000000000 0.0000000000000000 0.0000000000000000 0.76682973464781068 0.19599247871268149 0.016696338341944287 0.12917215158456088 3783.7350194994369 0.12921426755140250 0.0000000000000000 
84.446889799919219 176.19442409137196 160.50634279844996 84.446889799919234 176.19442409137184 160.50634279845005 -13.099419466975563 1.2917619707329198e-06 1.6257596656694943e-06 -1.2505710885214226e-06 0.0000000000000000 -2.8371229376437925e-05 -3.6126062104891160e-06 -0.00026451912745403057 0.0010736000058102903 -6.0877615413345578e-11 -6.7804689835011519e-11 6.9632265550207397e-11 0.0000000000000000 81.814121362732124 174.46733636348887 153.79871785113039 1849.3455604645501 0.0000000000000000 0.0000000000000000 0.0000000000000000 0.0000000000000000 0.76692638558328641 0.19603914485758100 0.016701941982580400 0.12928624774061317 3799.4067581529521 0.12923591436881077 0.0000000000000000 
79.067165689823682 239.48620304952502 178.94034560516477 79.067165689823682 239.48620304952507 178.94034560516477 -24.149269276018746 9.1068613145492044e-07 -2.7155067331834942e-07 -3.4234237897524718e-06 -23.148186995505824 -2.1147641974916809e-05 -2.8318699807350356e-07 -0.00029705900668752777 0.0012661240488740300 -5.3955541221893699e-11 2.4390707028671437e-11 -2.6961441828738896e-11 0.0012690829010482023 76.624585496999998 237.47047479999995 171.48180167999999 450.61312636181810 0.0000000000000000 0.0000000000000000 0.0000000000000000 0.0000000000000000 0.76730261125325872 0.19623716637566141 0.016727989720059788 0.12927220928650621 3773.1074364813703 0.12933680351130536 0.0000000000000000 
68.826490196635589 239.32348467856391 162.71290923412502 68.826490196635604 239.32348467856397 162.71290923412499 -28.263738661295747 -4.4579876573502205e-07 -2.0676252155911644e-07 -3.6077160524576443e-06 -29.842909801574077 -1.9123401040932603e-05 -2.8305543975428434e-07 -0.00027242207899047527 0.0012781475678985167 2.9752784510684009e-11 1.1010184877637249e-11 -5.0138978309578292e-12 0.0013054227565028923 66.617712469000011 237.30869291999991 155.87294816000005 715.16986369778181 0.0000000000000000 0.0000000000000000 0.0000000000000000 0.0000000000000000 0.76675472775003661 0.19595025661497603 0.016690447680062309 0.12919328239865593 3767.7530771425086 0.12919137579434012 0.0000000000000000 
89.922260289824635 238.93369494670108 153.49388650790229 89.922260289824635 238.93369494670108 153.49388650790229 -27.521653032326309 -1.6633783734622153e-06 -1.3262109077817575e-07 -1.9204911269637760e-06 -31.603538615872477 -2.3293333146102853e-05 -2.8274028318542152e-07 -0.00025842551226262772 0.0012507969041233218 4.2842740282468662e-11 -5.4289654313233098e-11 -4.4562589335559000e-11 0.0012971941676437335 87.231849972999981 236.92114653999997 147.00535059000001 1226.5804134212974 0.0000000000000000 0.0000000000000000 0.0000000000000000 0.0000000000000000 0.76706481521533187 0.19611175097650160 0.016711467007274602 0.12920952625742194 3765.8637693708374 0.12927282853477268 0.0000000000000000 
89.708947206619868 226.72338802856314 169.20589101832053 89.708947206619825 226.72338802856305 169.20589101832050 -23.078979300627903 -1.9185596200779505e-06 2.4768454948532148e-06 -2.6360111617941603e-06 0.0000000000000000 -2.3251168237647946e-05 -2.7286760828637574e-07 -0.00028227989751283822 0.0012277184264270552 7.8337961739398464e-11 -1.4691047169762162e-10 -5.2456144822481596e-11 0.0000000000000000 87.023406990868523 224.78111344523825 162.11842028882040 681.06850806740897 0.0000000000000000 0.0000000000000000 0.0000000000000000 0.0000000000000000 0.76676072514974447 0.19595186151041502 0.016690462501113560 0.12920555505919670 3779.9856279798973 0.12919154576287686 0.0000000000000000 
89.501986497112782 198.25047221650462 193.80435070713585 89.501986497112753 198.25047221650459 193.80435070713577 -12.268699987141055 2.2062658426743165e-06 -4.1947141419532927e-07 -1.0873741697189219e-06 0.0000000000000000 -2.3210258996764214e-05 -2.4984575897057937e-07 -0.00031962593654299992 0.00091748811415170029 -4.0517778460559594e-10 3.7464536562220720e-10 8.5910719071111385e-11 0.0000000000000000 86.821171352877627 196.47206744171046 185.77919734079927 1095.9217422697654 0.0000000000000000 0.0000000000000000 0.0000000000000000 0.0000000000000000 0.76704139772026325 0.19609755698040707 0.016709374585335716 0.12929080213955940 3799.1632040137647 0.12926475138702623 0.0000000000000000 
31.373694515885163 216.33023867365193 136.75444028283067 31.373694515885170 216.33023867365188 136.75444028283070 -17.587888026896866 2.1665948985982170e-07 1.6564303906563165e-06 2.0069773773362965e-07 -19.110795183181789 -1.1720229009525525e-05 -2.6446419920667097e-07 -0.00023301123753705072 0.00099258639946764793 -2.0540627173628640e-11 -1.1043239429638441e-10 -2.5377634513987914e-11 0.0010345440923747019 30.019992800000004 214.44777965000000 130.90400481000003 1639.8558849024062 0.0000000000000000 0.0000000000000000 0.0000000000000000 0.0000000000000000 0.76696313417910755 0.19606037527581896 0.016704980192129071 0.12927220928650623 3788.2666562503791 0.12924775181265291 0.0000000000000000 